 written on 12Oct2023 at 13:44:05
          27
          37
    1    1    1    1    1    1    1    1    1    1    1    1    1    1    1
    1    1    1    1    1    1    1    1    1    1    1    1    1    1    1
    1    1    1    1    1    1    1
   -3   -2    0    1    1    0.000000    0.000000
   -3   -2    0    2    1    0.000000    0.000000
   -3   -2    0    3    1    0.000000    0.000000
   -3   -2    0    4    1    0.000000    0.000000
   -3   -2    0    5    1    0.000000    0.000000
   -3   -2    0    6    1    0.000000    0.000000
   -3   -2    0    7    1    0.000000    0.000000
   -3   -2    0    8    1    0.000000    0.000000
   -3   -2    0    9    1    0.000000    0.000000
   -3   -2    0   10    1    0.000000    0.000000
   -3   -2    0   11    1    0.000000    0.000000
   -3   -2    0   12    1    0.000000    0.000000
   -3   -2    0   13    1    0.000000    0.000000
   -3   -2    0   14    1    0.000000    0.000000
   -3   -2    0   15    1    0.000000    0.000000
   -3   -2    0   16    1    0.000000    0.000000
   -3   -2    0   17    1    0.000000    0.000000
   -3   -2    0   18    1    0.000000    0.000000
   -3   -2    0   19    1    0.000000    0.000000
   -3   -2    0   20    1    0.000000    0.000000
   -3   -2    0   21    1    0.000000    0.000000
   -3   -2    0   22    1    0.000000    0.000000
   -3   -2    0   23    1    0.000000    0.000000
   -3   -2    0   24    1    0.000000    0.000000
   -3   -2    0   25    1    0.000000    0.000000
   -3   -2    0   26    1    0.000000    0.000000
   -3   -2    0   27    1    0.000000    0.000000
   -3   -2    0    1    2    0.000000    0.000000
   -3   -2    0    2    2    0.000000    0.000000
   -3   -2    0    3    2    0.000000    0.000000
   -3   -2    0    4    2    0.000000    0.000000
   -3   -2    0    5    2    0.000000    0.000000
   -3   -2    0    6    2    0.000000    0.000000
   -3   -2    0    7    2    0.000000    0.000000
   -3   -2    0    8    2    0.000000    0.000000
   -3   -2    0    9    2    0.000000    0.000000
   -3   -2    0   10    2    0.000000    0.000000
   -3   -2    0   11    2    0.000000    0.000000
   -3   -2    0   12    2    0.000000    0.000000
   -3   -2    0   13    2    0.000000    0.000000
   -3   -2    0   14    2    0.000000    0.000000
   -3   -2    0   15    2    0.000000    0.000000
   -3   -2    0   16    2    0.000000    0.000000
   -3   -2    0   17    2    0.000000    0.000000
   -3   -2    0   18    2    0.000000    0.000000
   -3   -2    0   19    2    0.000000    0.000000
   -3   -2    0   20    2    0.000000    0.000000
   -3   -2    0   21    2    0.000000    0.000000
   -3   -2    0   22    2    0.000000    0.000000
   -3   -2    0   23    2    0.000000    0.000000
   -3   -2    0   24    2    0.000000    0.000000
   -3   -2    0   25    2    0.000000    0.000000
   -3   -2    0   26    2    0.000000    0.000000
   -3   -2    0   27    2    0.000000    0.000000
   -3   -2    0    1    3    0.000000    0.000000
   -3   -2    0    2    3    0.000000    0.000000
   -3   -2    0    3    3    0.000000    0.000000
   -3   -2    0    4    3    0.000000    0.000000
   -3   -2    0    5    3    0.000000    0.000000
   -3   -2    0    6    3    0.000000    0.000000
   -3   -2    0    7    3    0.000000    0.000000
   -3   -2    0    8    3    0.000000    0.000000
   -3   -2    0    9    3    0.000000    0.000000
   -3   -2    0   10    3    0.000000    0.000000
   -3   -2    0   11    3    0.000000    0.000000
   -3   -2    0   12    3    0.000000    0.000000
   -3   -2    0   13    3    0.000000    0.000000
   -3   -2    0   14    3    0.000000    0.000000
   -3   -2    0   15    3    0.000000    0.000000
   -3   -2    0   16    3    0.000000    0.000000
   -3   -2    0   17    3    0.000000    0.000000
   -3   -2    0   18    3    0.000000    0.000000
   -3   -2    0   19    3    0.000000    0.000000
   -3   -2    0   20    3    0.000000    0.000000
   -3   -2    0   21    3    0.000000    0.000000
   -3   -2    0   22    3    0.000000    0.000000
   -3   -2    0   23    3    0.000000    0.000000
   -3   -2    0   24    3    0.000000    0.000000
   -3   -2    0   25    3    0.000000    0.000000
   -3   -2    0   26    3    0.000000    0.000000
   -3   -2    0   27    3    0.000000    0.000000
   -3   -2    0    1    4    0.000000    0.000000
   -3   -2    0    2    4    0.000000    0.000000
   -3   -2    0    3    4    0.000000    0.000000
   -3   -2    0    4    4    0.000000    0.000000
   -3   -2    0    5    4    0.000000    0.000000
   -3   -2    0    6    4    0.000000    0.000000
   -3   -2    0    7    4    0.000000    0.000000
   -3   -2    0    8    4    0.000000    0.000000
   -3   -2    0    9    4    0.000000    0.000000
   -3   -2    0   10    4    0.000000    0.000000
   -3   -2    0   11    4    0.000000    0.000000
   -3   -2    0   12    4    0.000000    0.000000
   -3   -2    0   13    4    0.000000    0.000000
   -3   -2    0   14    4    0.000000    0.000000
   -3   -2    0   15    4    0.000000    0.000000
   -3   -2    0   16    4    0.000000    0.000000
   -3   -2    0   17    4    0.000000    0.000000
   -3   -2    0   18    4    0.000000    0.000000
   -3   -2    0   19    4    0.000000    0.000000
   -3   -2    0   20    4    0.000000    0.000000
   -3   -2    0   21    4    0.000000    0.000000
   -3   -2    0   22    4    0.000000    0.000000
   -3   -2    0   23    4    0.000000    0.000000
   -3   -2    0   24    4    0.000000    0.000000
   -3   -2    0   25    4    0.000000    0.000000
   -3   -2    0   26    4    0.000000    0.000000
   -3   -2    0   27    4    0.000000    0.000000
   -3   -2    0    1    5    0.000000    0.000000
   -3   -2    0    2    5    0.000000    0.000000
   -3   -2    0    3    5    0.000000    0.000000
   -3   -2    0    4    5    0.000000    0.000000
   -3   -2    0    5    5    0.000000    0.000000
   -3   -2    0    6    5    0.000000    0.000000
   -3   -2    0    7    5    0.000000    0.000000
   -3   -2    0    8    5    0.000000    0.000000
   -3   -2    0    9    5    0.000000    0.000000
   -3   -2    0   10    5    0.000000    0.000000
   -3   -2    0   11    5    0.000000    0.000000
   -3   -2    0   12    5    0.000000    0.000000
   -3   -2    0   13    5    0.000000    0.000000
   -3   -2    0   14    5    0.000000    0.000000
   -3   -2    0   15    5    0.000000    0.000000
   -3   -2    0   16    5    0.000000    0.000000
   -3   -2    0   17    5    0.000000    0.000000
   -3   -2    0   18    5    0.000000    0.000000
   -3   -2    0   19    5    0.000000    0.000000
   -3   -2    0   20    5    0.000000    0.000000
   -3   -2    0   21    5    0.000000    0.000000
   -3   -2    0   22    5    0.000000    0.000000
   -3   -2    0   23    5    0.000000    0.000000
   -3   -2    0   24    5    0.000000    0.000000
   -3   -2    0   25    5    0.000000    0.000000
   -3   -2    0   26    5    0.000000    0.000000
   -3   -2    0   27    5    0.000000    0.000000
   -3   -2    0    1    6    0.000000    0.000000
   -3   -2    0    2    6    0.000000    0.000000
   -3   -2    0    3    6    0.000000    0.000000
   -3   -2    0    4    6    0.000000    0.000000
   -3   -2    0    5    6    0.000000    0.000000
   -3   -2    0    6    6    0.000000    0.000000
   -3   -2    0    7    6    0.000000    0.000000
   -3   -2    0    8    6    0.000000    0.000000
   -3   -2    0    9    6    0.000000    0.000000
   -3   -2    0   10    6    0.000000    0.000000
   -3   -2    0   11    6    0.000000    0.000000
   -3   -2    0   12    6    0.000000    0.000000
   -3   -2    0   13    6    0.000000    0.000000
   -3   -2    0   14    6    0.000000    0.000000
   -3   -2    0   15    6    0.000000    0.000000
   -3   -2    0   16    6    0.000000    0.000000
   -3   -2    0   17    6    0.000000    0.000000
   -3   -2    0   18    6    0.000000    0.000000
   -3   -2    0   19    6    0.000000    0.000000
   -3   -2    0   20    6    0.000000    0.000000
   -3   -2    0   21    6    0.000000    0.000000
   -3   -2    0   22    6    0.000000    0.000000
   -3   -2    0   23    6    0.000000    0.000000
   -3   -2    0   24    6    0.000000    0.000000
   -3   -2    0   25    6    0.000000    0.000000
   -3   -2    0   26    6    0.000000    0.000000
   -3   -2    0   27    6    0.000000    0.000000
   -3   -2    0    1    7    0.000000    0.000000
   -3   -2    0    2    7    0.000000    0.000000
   -3   -2    0    3    7    0.000000    0.000000
   -3   -2    0    4    7    0.000000    0.000000
   -3   -2    0    5    7    0.000000    0.000000
   -3   -2    0    6    7    0.000000    0.000000
   -3   -2    0    7    7    0.000000    0.000000
   -3   -2    0    8    7    0.000000    0.000000
   -3   -2    0    9    7    0.000000    0.000000
   -3   -2    0   10    7    0.000000    0.000000
   -3   -2    0   11    7    0.000000    0.000000
   -3   -2    0   12    7    0.000000    0.000000
   -3   -2    0   13    7    0.000000    0.000000
   -3   -2    0   14    7    0.000000    0.000000
   -3   -2    0   15    7    0.000000    0.000000
   -3   -2    0   16    7    0.000000    0.000000
   -3   -2    0   17    7    0.000000    0.000000
   -3   -2    0   18    7    0.000000    0.000000
   -3   -2    0   19    7    0.000000    0.000000
   -3   -2    0   20    7    0.000000    0.000000
   -3   -2    0   21    7    0.000000    0.000000
   -3   -2    0   22    7    0.000000    0.000000
   -3   -2    0   23    7    0.000000    0.000000
   -3   -2    0   24    7    0.000000    0.000000
   -3   -2    0   25    7    0.000000    0.000000
   -3   -2    0   26    7    0.000000    0.000000
   -3   -2    0   27    7    0.000000    0.000000
   -3   -2    0    1    8    0.000000    0.000000
   -3   -2    0    2    8    0.000000    0.000000
   -3   -2    0    3    8    0.000000    0.000000
   -3   -2    0    4    8    0.000000    0.000000
   -3   -2    0    5    8    0.000000    0.000000
   -3   -2    0    6    8    0.000000    0.000000
   -3   -2    0    7    8    0.000000    0.000000
   -3   -2    0    8    8    0.000000    0.000000
   -3   -2    0    9    8    0.000000    0.000000
   -3   -2    0   10    8    0.000000    0.000000
   -3   -2    0   11    8    0.000000    0.000000
   -3   -2    0   12    8    0.000000    0.000000
   -3   -2    0   13    8    0.000000    0.000000
   -3   -2    0   14    8    0.000000    0.000000
   -3   -2    0   15    8    0.000000    0.000000
   -3   -2    0   16    8    0.000000    0.000000
   -3   -2    0   17    8    0.000000    0.000000
   -3   -2    0   18    8    0.000000    0.000000
   -3   -2    0   19    8    0.000000    0.000000
   -3   -2    0   20    8    0.000000    0.000000
   -3   -2    0   21    8    0.000000    0.000000
   -3   -2    0   22    8    0.000000    0.000000
   -3   -2    0   23    8    0.000000    0.000000
   -3   -2    0   24    8    0.000000    0.000000
   -3   -2    0   25    8    0.000000    0.000000
   -3   -2    0   26    8    0.000000    0.000000
   -3   -2    0   27    8    0.000000    0.000000
   -3   -2    0    1    9    0.000000    0.000000
   -3   -2    0    2    9    0.000000    0.000000
   -3   -2    0    3    9    0.000000    0.000000
   -3   -2    0    4    9    0.000000    0.000000
   -3   -2    0    5    9    0.000000    0.000000
   -3   -2    0    6    9    0.000000    0.000000
   -3   -2    0    7    9    0.000000    0.000000
   -3   -2    0    8    9    0.000000    0.000000
   -3   -2    0    9    9    0.000000    0.000000
   -3   -2    0   10    9    0.000000    0.000000
   -3   -2    0   11    9    0.000000    0.000000
   -3   -2    0   12    9    0.000000    0.000000
   -3   -2    0   13    9    0.000000    0.000000
   -3   -2    0   14    9    0.000000    0.000000
   -3   -2    0   15    9    0.000000    0.000000
   -3   -2    0   16    9    0.000000    0.000000
   -3   -2    0   17    9    0.000000    0.000000
   -3   -2    0   18    9    0.000000    0.000000
   -3   -2    0   19    9    0.000000    0.000000
   -3   -2    0   20    9    0.000000    0.000000
   -3   -2    0   21    9    0.000000    0.000000
   -3   -2    0   22    9    0.000000    0.000000
   -3   -2    0   23    9    0.000000    0.000000
   -3   -2    0   24    9    0.000000    0.000000
   -3   -2    0   25    9    0.000000    0.000000
   -3   -2    0   26    9    0.000000    0.000000
   -3   -2    0   27    9    0.000000    0.000000
   -3   -2    0    1   10    0.000000    0.000000
   -3   -2    0    2   10    0.000000    0.000000
   -3   -2    0    3   10    0.000000    0.000000
   -3   -2    0    4   10    0.000000    0.000000
   -3   -2    0    5   10    0.000000    0.000000
   -3   -2    0    6   10    0.000000    0.000000
   -3   -2    0    7   10    0.000000    0.000000
   -3   -2    0    8   10    0.000000    0.000000
   -3   -2    0    9   10    0.000000    0.000000
   -3   -2    0   10   10    0.000000    0.000000
   -3   -2    0   11   10    0.000000    0.000000
   -3   -2    0   12   10    0.000000    0.000000
   -3   -2    0   13   10    0.000000    0.000000
   -3   -2    0   14   10    0.000000    0.000000
   -3   -2    0   15   10    0.000000    0.000000
   -3   -2    0   16   10    0.000000    0.000000
   -3   -2    0   17   10    0.000000    0.000000
   -3   -2    0   18   10    0.000000    0.000000
   -3   -2    0   19   10    0.000000    0.000000
   -3   -2    0   20   10    0.000000    0.000000
   -3   -2    0   21   10    0.000000    0.000000
   -3   -2    0   22   10    0.000000    0.000000
   -3   -2    0   23   10    0.000000    0.000000
   -3   -2    0   24   10    0.000000    0.000000
   -3   -2    0   25   10    0.000000    0.000000
   -3   -2    0   26   10    0.000000    0.000000
   -3   -2    0   27   10    0.000000    0.000000
   -3   -2    0    1   11    0.000000    0.000000
   -3   -2    0    2   11    0.000000    0.000000
   -3   -2    0    3   11    0.000000    0.000000
   -3   -2    0    4   11    0.000000    0.000000
   -3   -2    0    5   11    0.000000    0.000000
   -3   -2    0    6   11    0.000000    0.000000
   -3   -2    0    7   11    0.000000    0.000000
   -3   -2    0    8   11    0.000000    0.000000
   -3   -2    0    9   11    0.000000    0.000000
   -3   -2    0   10   11    0.000000    0.000000
   -3   -2    0   11   11    0.000000    0.000000
   -3   -2    0   12   11    0.000000    0.000000
   -3   -2    0   13   11    0.000000    0.000000
   -3   -2    0   14   11    0.000000    0.000000
   -3   -2    0   15   11    0.000000    0.000000
   -3   -2    0   16   11    0.000000    0.000000
   -3   -2    0   17   11    0.000000    0.000000
   -3   -2    0   18   11    0.000000    0.000000
   -3   -2    0   19   11    0.000000    0.000000
   -3   -2    0   20   11    0.000000    0.000000
   -3   -2    0   21   11    0.000000    0.000000
   -3   -2    0   22   11    0.000000    0.000000
   -3   -2    0   23   11    0.000000    0.000000
   -3   -2    0   24   11    0.000000    0.000000
   -3   -2    0   25   11    0.000000    0.000000
   -3   -2    0   26   11    0.000000    0.000000
   -3   -2    0   27   11    0.000000    0.000000
   -3   -2    0    1   12    0.000000    0.000000
   -3   -2    0    2   12    0.000000    0.000000
   -3   -2    0    3   12    0.000000    0.000000
   -3   -2    0    4   12    0.000000    0.000000
   -3   -2    0    5   12    0.000000    0.000000
   -3   -2    0    6   12    0.000000    0.000000
   -3   -2    0    7   12    0.000000    0.000000
   -3   -2    0    8   12    0.000000    0.000000
   -3   -2    0    9   12    0.000000    0.000000
   -3   -2    0   10   12    0.000000    0.000000
   -3   -2    0   11   12    0.000000    0.000000
   -3   -2    0   12   12    0.000000    0.000000
   -3   -2    0   13   12    0.000000    0.000000
   -3   -2    0   14   12    0.000000    0.000000
   -3   -2    0   15   12    0.000000    0.000000
   -3   -2    0   16   12    0.000000    0.000000
   -3   -2    0   17   12    0.000000    0.000000
   -3   -2    0   18   12    0.000000    0.000000
   -3   -2    0   19   12    0.000000    0.000000
   -3   -2    0   20   12    0.000000    0.000000
   -3   -2    0   21   12    0.000000    0.000000
   -3   -2    0   22   12    0.000000    0.000000
   -3   -2    0   23   12    0.000000    0.000000
   -3   -2    0   24   12    0.000000    0.000000
   -3   -2    0   25   12    0.000000    0.000000
   -3   -2    0   26   12    0.000000    0.000000
   -3   -2    0   27   12    0.000000    0.000000
   -3   -2    0    1   13    0.000000    0.000000
   -3   -2    0    2   13    0.000000    0.000000
   -3   -2    0    3   13    0.000000    0.000000
   -3   -2    0    4   13    0.000000    0.000000
   -3   -2    0    5   13    0.000000    0.000000
   -3   -2    0    6   13    0.000000    0.000000
   -3   -2    0    7   13    0.000000    0.000000
   -3   -2    0    8   13    0.000000    0.000000
   -3   -2    0    9   13    0.000000    0.000000
   -3   -2    0   10   13    0.000000    0.000000
   -3   -2    0   11   13    0.000000    0.000000
   -3   -2    0   12   13    0.000000    0.000000
   -3   -2    0   13   13    0.000000    0.000000
   -3   -2    0   14   13    0.000000    0.000000
   -3   -2    0   15   13    0.000000    0.000000
   -3   -2    0   16   13    0.000000    0.000000
   -3   -2    0   17   13    0.000000    0.000000
   -3   -2    0   18   13    0.000000    0.000000
   -3   -2    0   19   13    0.000000    0.000000
   -3   -2    0   20   13    0.000000    0.000000
   -3   -2    0   21   13    0.000000    0.000000
   -3   -2    0   22   13    0.000000    0.000000
   -3   -2    0   23   13    0.000000    0.000000
   -3   -2    0   24   13    0.000000    0.000000
   -3   -2    0   25   13    0.000000    0.000000
   -3   -2    0   26   13    0.000000    0.000000
   -3   -2    0   27   13    0.000000    0.000000
   -3   -2    0    1   14    0.000000    0.000000
   -3   -2    0    2   14    0.000000    0.000000
   -3   -2    0    3   14    0.000000    0.000000
   -3   -2    0    4   14    0.000000    0.000000
   -3   -2    0    5   14    0.000000    0.000000
   -3   -2    0    6   14    0.000000    0.000000
   -3   -2    0    7   14    0.000000    0.000000
   -3   -2    0    8   14    0.000000    0.000000
   -3   -2    0    9   14    0.000000    0.000000
   -3   -2    0   10   14    0.000000    0.000000
   -3   -2    0   11   14    0.000000    0.000000
   -3   -2    0   12   14    0.000000    0.000000
   -3   -2    0   13   14    0.000000    0.000000
   -3   -2    0   14   14    0.000000    0.000000
   -3   -2    0   15   14    0.000000    0.000000
   -3   -2    0   16   14    0.000000    0.000000
   -3   -2    0   17   14    0.000000    0.000000
   -3   -2    0   18   14    0.000000    0.000000
   -3   -2    0   19   14    0.000000    0.000000
   -3   -2    0   20   14    0.000000    0.000000
   -3   -2    0   21   14    0.000000    0.000000
   -3   -2    0   22   14    0.000000    0.000000
   -3   -2    0   23   14    0.000000    0.000000
   -3   -2    0   24   14    0.000000    0.000000
   -3   -2    0   25   14    0.000000    0.000000
   -3   -2    0   26   14    0.000000    0.000000
   -3   -2    0   27   14    0.000000    0.000000
   -3   -2    0    1   15    0.000000    0.000000
   -3   -2    0    2   15    0.000000    0.000000
   -3   -2    0    3   15    0.000000    0.000000
   -3   -2    0    4   15    0.000000    0.000000
   -3   -2    0    5   15    0.000000    0.000000
   -3   -2    0    6   15    0.000000    0.000000
   -3   -2    0    7   15    0.000000    0.000000
   -3   -2    0    8   15    0.000000    0.000000
   -3   -2    0    9   15    0.000000    0.000000
   -3   -2    0   10   15    0.000000    0.000000
   -3   -2    0   11   15    0.000000    0.000000
   -3   -2    0   12   15    0.000000    0.000000
   -3   -2    0   13   15    0.000000    0.000000
   -3   -2    0   14   15    0.000000    0.000000
   -3   -2    0   15   15    0.000000    0.000000
   -3   -2    0   16   15    0.000000    0.000000
   -3   -2    0   17   15    0.000000    0.000000
   -3   -2    0   18   15    0.000000    0.000000
   -3   -2    0   19   15    0.000000    0.000000
   -3   -2    0   20   15    0.000000    0.000000
   -3   -2    0   21   15    0.000000    0.000000
   -3   -2    0   22   15    0.000000    0.000000
   -3   -2    0   23   15    0.000000    0.000000
   -3   -2    0   24   15    0.000000    0.000000
   -3   -2    0   25   15    0.000000    0.000000
   -3   -2    0   26   15    0.000000    0.000000
   -3   -2    0   27   15    0.000000    0.000000
   -3   -2    0    1   16    0.000134    0.000000
   -3   -2    0    2   16   -0.000015    0.000000
   -3   -2    0    3   16    0.000003    0.000000
   -3   -2    0    4   16    0.000000    0.000000
   -3   -2    0    5   16    0.000000    0.000000
   -3   -2    0    6   16    0.000000    0.000000
   -3   -2    0    7   16    0.000000    0.000000
   -3   -2    0    8   16    0.000000    0.000000
   -3   -2    0    9   16    0.000000    0.000000
   -3   -2    0   10   16    0.000000    0.000000
   -3   -2    0   11   16    0.000000    0.000000
   -3   -2    0   12   16    0.000000    0.000000
   -3   -2    0   13   16    0.000000    0.000000
   -3   -2    0   14   16    0.000000    0.000000
   -3   -2    0   15   16    0.000000    0.000000
   -3   -2    0   16   16    0.000000    0.000000
   -3   -2    0   17   16    0.000000    0.000000
   -3   -2    0   18   16    0.000000    0.000000
   -3   -2    0   19   16    0.000000    0.000000
   -3   -2    0   20   16    0.000000    0.000000
   -3   -2    0   21   16    0.000000    0.000000
   -3   -2    0   22   16    0.000000    0.000000
   -3   -2    0   23   16    0.000000    0.000000
   -3   -2    0   24   16    0.000000    0.000000
   -3   -2    0   25   16    0.000000    0.000000
   -3   -2    0   26   16    0.000000    0.000000
   -3   -2    0   27   16    0.000000    0.000000
   -3   -2    0    1   17    0.000014   -0.000000
   -3   -2    0    2   17   -0.000006    0.000000
   -3   -2    0    3   17   -0.000009    0.000000
   -3   -2    0    4   17    0.000000    0.000000
   -3   -2    0    5   17    0.000000    0.000000
   -3   -2    0    6   17    0.000000    0.000000
   -3   -2    0    7   17    0.000000    0.000000
   -3   -2    0    8   17    0.000000    0.000000
   -3   -2    0    9   17    0.000000    0.000000
   -3   -2    0   10   17    0.000000    0.000000
   -3   -2    0   11   17    0.000000    0.000000
   -3   -2    0   12   17    0.000000    0.000000
   -3   -2    0   13   17    0.000000    0.000000
   -3   -2    0   14   17    0.000000    0.000000
   -3   -2    0   15   17    0.000000    0.000000
   -3   -2    0   16   17    0.000000    0.000000
   -3   -2    0   17   17    0.000000    0.000000
   -3   -2    0   18   17    0.000000    0.000000
   -3   -2    0   19   17    0.000000    0.000000
   -3   -2    0   20   17    0.000000    0.000000
   -3   -2    0   21   17    0.000000    0.000000
   -3   -2    0   22   17    0.000000    0.000000
   -3   -2    0   23   17    0.000000    0.000000
   -3   -2    0   24   17    0.000000    0.000000
   -3   -2    0   25   17    0.000000    0.000000
   -3   -2    0   26   17    0.000000    0.000000
   -3   -2    0   27   17    0.000000    0.000000
   -3   -2    0    1   18   -0.000001   -0.000000
   -3   -2    0    2   18   -0.000010   -0.000000
   -3   -2    0    3   18   -0.000026    0.000000
   -3   -2    0    4   18    0.000000    0.000000
   -3   -2    0    5   18    0.000000    0.000000
   -3   -2    0    6   18    0.000000    0.000000
   -3   -2    0    7   18    0.000000    0.000000
   -3   -2    0    8   18    0.000000    0.000000
   -3   -2    0    9   18    0.000000    0.000000
   -3   -2    0   10   18    0.000000    0.000000
   -3   -2    0   11   18    0.000000    0.000000
   -3   -2    0   12   18    0.000000    0.000000
   -3   -2    0   13   18    0.000000    0.000000
   -3   -2    0   14   18    0.000000    0.000000
   -3   -2    0   15   18    0.000000    0.000000
   -3   -2    0   16   18    0.000000    0.000000
   -3   -2    0   17   18    0.000000    0.000000
   -3   -2    0   18   18    0.000000    0.000000
   -3   -2    0   19   18    0.000000    0.000000
   -3   -2    0   20   18    0.000000    0.000000
   -3   -2    0   21   18    0.000000    0.000000
   -3   -2    0   22   18    0.000000    0.000000
   -3   -2    0   23   18    0.000000    0.000000
   -3   -2    0   24   18    0.000000    0.000000
   -3   -2    0   25   18    0.000000    0.000000
   -3   -2    0   26   18    0.000000    0.000000
   -3   -2    0   27   18    0.000000    0.000000
   -3   -2    0    1   19    0.000000    0.000000
   -3   -2    0    2   19    0.000000    0.000000
   -3   -2    0    3   19    0.000000    0.000000
   -3   -2    0    4   19    0.000000    0.000000
   -3   -2    0    5   19    0.000000    0.000000
   -3   -2    0    6   19    0.000000    0.000000
   -3   -2    0    7   19    0.000000    0.000000
   -3   -2    0    8   19    0.000000    0.000000
   -3   -2    0    9   19    0.000000    0.000000
   -3   -2    0   10   19    0.000000    0.000000
   -3   -2    0   11   19    0.000000    0.000000
   -3   -2    0   12   19    0.000000    0.000000
   -3   -2    0   13   19    0.000000    0.000000
   -3   -2    0   14   19    0.000000    0.000000
   -3   -2    0   15   19    0.000000    0.000000
   -3   -2    0   16   19    0.000000    0.000000
   -3   -2    0   17   19    0.000000    0.000000
   -3   -2    0   18   19    0.000000    0.000000
   -3   -2    0   19   19    0.000000    0.000000
   -3   -2    0   20   19    0.000000    0.000000
   -3   -2    0   21   19    0.000000    0.000000
   -3   -2    0   22   19    0.000000    0.000000
   -3   -2    0   23   19    0.000000    0.000000
   -3   -2    0   24   19    0.000000    0.000000
   -3   -2    0   25   19    0.000000    0.000000
   -3   -2    0   26   19    0.000000    0.000000
   -3   -2    0   27   19    0.000000    0.000000
   -3   -2    0    1   20    0.000000    0.000000
   -3   -2    0    2   20    0.000000    0.000000
   -3   -2    0    3   20    0.000000    0.000000
   -3   -2    0    4   20    0.000000    0.000000
   -3   -2    0    5   20    0.000000    0.000000
   -3   -2    0    6   20    0.000000    0.000000
   -3   -2    0    7   20    0.000000    0.000000
   -3   -2    0    8   20    0.000000    0.000000
   -3   -2    0    9   20    0.000000    0.000000
   -3   -2    0   10   20    0.000000    0.000000
   -3   -2    0   11   20    0.000000    0.000000
   -3   -2    0   12   20    0.000000    0.000000
   -3   -2    0   13   20    0.000000    0.000000
   -3   -2    0   14   20    0.000000    0.000000
   -3   -2    0   15   20    0.000000    0.000000
   -3   -2    0   16   20    0.000000    0.000000
   -3   -2    0   17   20    0.000000    0.000000
   -3   -2    0   18   20    0.000000    0.000000
   -3   -2    0   19   20    0.000000    0.000000
   -3   -2    0   20   20    0.000000    0.000000
   -3   -2    0   21   20    0.000000    0.000000
   -3   -2    0   22   20    0.000000    0.000000
   -3   -2    0   23   20    0.000000    0.000000
   -3   -2    0   24   20    0.000000    0.000000
   -3   -2    0   25   20    0.000000    0.000000
   -3   -2    0   26   20    0.000000    0.000000
   -3   -2    0   27   20    0.000000    0.000000
   -3   -2    0    1   21    0.000000    0.000000
   -3   -2    0    2   21    0.000000    0.000000
   -3   -2    0    3   21    0.000000    0.000000
   -3   -2    0    4   21    0.000000    0.000000
   -3   -2    0    5   21    0.000000    0.000000
   -3   -2    0    6   21    0.000000    0.000000
   -3   -2    0    7   21    0.000000    0.000000
   -3   -2    0    8   21    0.000000    0.000000
   -3   -2    0    9   21    0.000000    0.000000
   -3   -2    0   10   21    0.000000    0.000000
   -3   -2    0   11   21    0.000000    0.000000
   -3   -2    0   12   21    0.000000    0.000000
   -3   -2    0   13   21    0.000000    0.000000
   -3   -2    0   14   21    0.000000    0.000000
   -3   -2    0   15   21    0.000000    0.000000
   -3   -2    0   16   21    0.000000    0.000000
   -3   -2    0   17   21    0.000000    0.000000
   -3   -2    0   18   21    0.000000    0.000000
   -3   -2    0   19   21    0.000000    0.000000
   -3   -2    0   20   21    0.000000    0.000000
   -3   -2    0   21   21    0.000000    0.000000
   -3   -2    0   22   21    0.000000    0.000000
   -3   -2    0   23   21    0.000000    0.000000
   -3   -2    0   24   21    0.000000    0.000000
   -3   -2    0   25   21    0.000000    0.000000
   -3   -2    0   26   21    0.000000    0.000000
   -3   -2    0   27   21    0.000000    0.000000
   -3   -2    0    1   22   -0.000302   -0.000000
   -3   -2    0    2   22   -0.000137    0.000000
   -3   -2    0    3   22    0.000152   -0.000000
   -3   -2    0    4   22    0.000000    0.000000
   -3   -2    0    5   22    0.000000    0.000000
   -3   -2    0    6   22    0.000000    0.000000
   -3   -2    0    7   22    0.000000    0.000000
   -3   -2    0    8   22    0.000000    0.000000
   -3   -2    0    9   22    0.000000    0.000000
   -3   -2    0   10   22    0.000000    0.000000
   -3   -2    0   11   22    0.000000    0.000000
   -3   -2    0   12   22    0.000000    0.000000
   -3   -2    0   13   22    0.000000    0.000000
   -3   -2    0   14   22    0.000000    0.000000
   -3   -2    0   15   22    0.000000    0.000000
   -3   -2    0   16   22    0.000000    0.000000
   -3   -2    0   17   22    0.000000    0.000000
   -3   -2    0   18   22    0.000000    0.000000
   -3   -2    0   19   22    0.000000    0.000000
   -3   -2    0   20   22    0.000000    0.000000
   -3   -2    0   21   22    0.000000    0.000000
   -3   -2    0   22   22    0.000000    0.000000
   -3   -2    0   23   22    0.000000    0.000000
   -3   -2    0   24   22    0.000000    0.000000
   -3   -2    0   25   22    0.000000    0.000000
   -3   -2    0   26   22    0.000000    0.000000
   -3   -2    0   27   22    0.000000    0.000000
   -3   -2    0    1   23   -0.000025    0.000000
   -3   -2    0    2   23    0.000172    0.000000
   -3   -2    0    3   23    0.000247    0.000000
   -3   -2    0    4   23    0.000000    0.000000
   -3   -2    0    5   23    0.000000    0.000000
   -3   -2    0    6   23    0.000000    0.000000
   -3   -2    0    7   23    0.000000    0.000000
   -3   -2    0    8   23    0.000000    0.000000
   -3   -2    0    9   23    0.000000    0.000000
   -3   -2    0   10   23    0.000000    0.000000
   -3   -2    0   11   23    0.000000    0.000000
   -3   -2    0   12   23    0.000000    0.000000
   -3   -2    0   13   23    0.000000    0.000000
   -3   -2    0   14   23    0.000000    0.000000
   -3   -2    0   15   23    0.000000    0.000000
   -3   -2    0   16   23    0.000000    0.000000
   -3   -2    0   17   23    0.000000    0.000000
   -3   -2    0   18   23    0.000000    0.000000
   -3   -2    0   19   23    0.000000    0.000000
   -3   -2    0   20   23    0.000000    0.000000
   -3   -2    0   21   23    0.000000    0.000000
   -3   -2    0   22   23    0.000000    0.000000
   -3   -2    0   23   23    0.000000    0.000000
   -3   -2    0   24   23    0.000000    0.000000
   -3   -2    0   25   23    0.000000    0.000000
   -3   -2    0   26   23    0.000000    0.000000
   -3   -2    0   27   23    0.000000    0.000000
   -3   -2    0    1   24   -0.000132    0.000000
   -3   -2    0    2   24    0.000191   -0.000000
   -3   -2    0    3   24   -0.000004   -0.000000
   -3   -2    0    4   24    0.000000    0.000000
   -3   -2    0    5   24    0.000000    0.000000
   -3   -2    0    6   24    0.000000    0.000000
   -3   -2    0    7   24    0.000000    0.000000
   -3   -2    0    8   24    0.000000    0.000000
   -3   -2    0    9   24    0.000000    0.000000
   -3   -2    0   10   24    0.000000    0.000000
   -3   -2    0   11   24    0.000000    0.000000
   -3   -2    0   12   24    0.000000    0.000000
   -3   -2    0   13   24    0.000000    0.000000
   -3   -2    0   14   24    0.000000    0.000000
   -3   -2    0   15   24    0.000000    0.000000
   -3   -2    0   16   24    0.000000    0.000000
   -3   -2    0   17   24    0.000000    0.000000
   -3   -2    0   18   24    0.000000    0.000000
   -3   -2    0   19   24    0.000000    0.000000
   -3   -2    0   20   24    0.000000    0.000000
   -3   -2    0   21   24    0.000000    0.000000
   -3   -2    0   22   24    0.000000    0.000000
   -3   -2    0   23   24    0.000000    0.000000
   -3   -2    0   24   24    0.000000    0.000000
   -3   -2    0   25   24    0.000000    0.000000
   -3   -2    0   26   24    0.000000    0.000000
   -3   -2    0   27   24    0.000000    0.000000
   -3   -2    0    1   25    0.000073    0.000000
   -3   -2    0    2   25    0.000418    0.000000
   -3   -2    0    3   25   -0.000284   -0.000000
   -3   -2    0    4   25   -0.000302   -0.000000
   -3   -2    0    5   25   -0.000106    0.000000
   -3   -2    0    6   25    0.000223    0.000000
   -3   -2    0    7   25    0.000000    0.000000
   -3   -2    0    8   25    0.000000    0.000000
   -3   -2    0    9   25    0.000000    0.000000
   -3   -2    0   10   25    0.000134    0.000000
   -3   -2    0   11   25   -0.000015    0.000000
   -3   -2    0   12   25   -0.000003   -0.000000
   -3   -2    0   13   25    0.000000    0.000000
   -3   -2    0   14   25    0.000000    0.000000
   -3   -2    0   15   25    0.000000    0.000000
   -3   -2    0   16   25    0.000000    0.000000
   -3   -2    0   17   25    0.000000    0.000000
   -3   -2    0   18   25    0.000000    0.000000
   -3   -2    0   19   25    0.000000    0.000000
   -3   -2    0   20   25    0.000000    0.000000
   -3   -2    0   21   25    0.000000    0.000000
   -3   -2    0   22   25    0.000000    0.000000
   -3   -2    0   23   25    0.000000    0.000000
   -3   -2    0   24   25    0.000000    0.000000
   -3   -2    0   25   25    0.000000    0.000000
   -3   -2    0   26   25    0.000000    0.000000
   -3   -2    0   27   25    0.000000    0.000000
   -3   -2    0    1   26    0.000026   -0.000000
   -3   -2    0    2   26    0.000098    0.000000
   -3   -2    0    3   26   -0.000337    0.000000
   -3   -2    0    4   26    0.000000    0.000000
   -3   -2    0    5   26    0.000253    0.000000
   -3   -2    0    6   26    0.000288    0.000000
   -3   -2    0    7   26    0.000000    0.000000
   -3   -2    0    8   26    0.000000    0.000000
   -3   -2    0    9   26    0.000000    0.000000
   -3   -2    0   10   26    0.000014   -0.000000
   -3   -2    0   11   26   -0.000006    0.000000
   -3   -2    0   12   26    0.000009   -0.000000
   -3   -2    0   13   26    0.000000    0.000000
   -3   -2    0   14   26    0.000000    0.000000
   -3   -2    0   15   26    0.000000    0.000000
   -3   -2    0   16   26    0.000000    0.000000
   -3   -2    0   17   26    0.000000    0.000000
   -3   -2    0   18   26    0.000000    0.000000
   -3   -2    0   19   26    0.000000    0.000000
   -3   -2    0   20   26    0.000000    0.000000
   -3   -2    0   21   26    0.000000    0.000000
   -3   -2    0   22   26    0.000000    0.000000
   -3   -2    0   23   26    0.000000    0.000000
   -3   -2    0   24   26    0.000000    0.000000
   -3   -2    0   25   26    0.000000    0.000000
   -3   -2    0   26   26    0.000000    0.000000
   -3   -2    0   27   26    0.000000    0.000000
   -3   -2    0    1   27    0.000189   -0.000000
   -3   -2    0    2   27    0.000020   -0.000000
   -3   -2    0    3   27   -0.000204    0.000000
   -3   -2    0    4   27   -0.000110    0.000000
   -3   -2    0    5   27    0.000193    0.000000
   -3   -2    0    6   27   -0.000062   -0.000000
   -3   -2    0    7   27    0.000000    0.000000
   -3   -2    0    8   27    0.000000    0.000000
   -3   -2    0    9   27    0.000000    0.000000
   -3   -2    0   10   27    0.000001   -0.000000
   -3   -2    0   11   27    0.000010   -0.000000
   -3   -2    0   12   27   -0.000026   -0.000000
   -3   -2    0   13   27    0.000000    0.000000
   -3   -2    0   14   27    0.000000    0.000000
   -3   -2    0   15   27    0.000000    0.000000
   -3   -2    0   16   27    0.000000    0.000000
   -3   -2    0   17   27    0.000000    0.000000
   -3   -2    0   18   27    0.000000    0.000000
   -3   -2    0   19   27    0.000000    0.000000
   -3   -2    0   20   27    0.000000    0.000000
   -3   -2    0   21   27    0.000000    0.000000
   -3   -2    0   22   27    0.000000    0.000000
   -3   -2    0   23   27    0.000000    0.000000
   -3   -2    0   24   27    0.000000    0.000000
   -3   -2    0   25   27    0.000000    0.000000
   -3   -2    0   26   27    0.000000    0.000000
   -3   -2    0   27   27    0.000000    0.000000
   -3   -1    0    1    1    0.000000    0.000000
   -3   -1    0    2    1    0.000000    0.000000
   -3   -1    0    3    1    0.000000    0.000000
   -3   -1    0    4    1    0.000000    0.000000
   -3   -1    0    5    1    0.000000    0.000000
   -3   -1    0    6    1    0.000000    0.000000
   -3   -1    0    7    1    0.000000    0.000000
   -3   -1    0    8    1    0.000000    0.000000
   -3   -1    0    9    1    0.000000    0.000000
   -3   -1    0   10    1    0.000000    0.000000
   -3   -1    0   11    1    0.000000    0.000000
   -3   -1    0   12    1    0.000000    0.000000
   -3   -1    0   13    1    0.000000    0.000000
   -3   -1    0   14    1    0.000000    0.000000
   -3   -1    0   15    1    0.000000    0.000000
   -3   -1    0   16    1    0.000000    0.000000
   -3   -1    0   17    1    0.000000    0.000000
   -3   -1    0   18    1    0.000000    0.000000
   -3   -1    0   19    1    0.000000    0.000000
   -3   -1    0   20    1    0.000000    0.000000
   -3   -1    0   21    1    0.000000    0.000000
   -3   -1    0   22    1    0.000000    0.000000
   -3   -1    0   23    1    0.000000    0.000000
   -3   -1    0   24    1    0.000000    0.000000
   -3   -1    0   25    1    0.000000    0.000000
   -3   -1    0   26    1    0.000000    0.000000
   -3   -1    0   27    1    0.000000    0.000000
   -3   -1    0    1    2    0.000000    0.000000
   -3   -1    0    2    2    0.000000    0.000000
   -3   -1    0    3    2    0.000000    0.000000
   -3   -1    0    4    2    0.000000    0.000000
   -3   -1    0    5    2    0.000000    0.000000
   -3   -1    0    6    2    0.000000    0.000000
   -3   -1    0    7    2    0.000000    0.000000
   -3   -1    0    8    2    0.000000    0.000000
   -3   -1    0    9    2    0.000000    0.000000
   -3   -1    0   10    2    0.000000    0.000000
   -3   -1    0   11    2    0.000000    0.000000
   -3   -1    0   12    2    0.000000    0.000000
   -3   -1    0   13    2    0.000000    0.000000
   -3   -1    0   14    2    0.000000    0.000000
   -3   -1    0   15    2    0.000000    0.000000
   -3   -1    0   16    2    0.000000    0.000000
   -3   -1    0   17    2    0.000000    0.000000
   -3   -1    0   18    2    0.000000    0.000000
   -3   -1    0   19    2    0.000000    0.000000
   -3   -1    0   20    2    0.000000    0.000000
   -3   -1    0   21    2    0.000000    0.000000
   -3   -1    0   22    2    0.000000    0.000000
   -3   -1    0   23    2    0.000000    0.000000
   -3   -1    0   24    2    0.000000    0.000000
   -3   -1    0   25    2    0.000000    0.000000
   -3   -1    0   26    2    0.000000    0.000000
   -3   -1    0   27    2    0.000000    0.000000
   -3   -1    0    1    3    0.000000    0.000000
   -3   -1    0    2    3    0.000000    0.000000
   -3   -1    0    3    3    0.000000    0.000000
   -3   -1    0    4    3    0.000000    0.000000
   -3   -1    0    5    3    0.000000    0.000000
   -3   -1    0    6    3    0.000000    0.000000
   -3   -1    0    7    3    0.000000    0.000000
   -3   -1    0    8    3    0.000000    0.000000
   -3   -1    0    9    3    0.000000    0.000000
   -3   -1    0   10    3    0.000000    0.000000
   -3   -1    0   11    3    0.000000    0.000000
   -3   -1    0   12    3    0.000000    0.000000
   -3   -1    0   13    3    0.000000    0.000000
   -3   -1    0   14    3    0.000000    0.000000
   -3   -1    0   15    3    0.000000    0.000000
   -3   -1    0   16    3    0.000000    0.000000
   -3   -1    0   17    3    0.000000    0.000000
   -3   -1    0   18    3    0.000000    0.000000
   -3   -1    0   19    3    0.000000    0.000000
   -3   -1    0   20    3    0.000000    0.000000
   -3   -1    0   21    3    0.000000    0.000000
   -3   -1    0   22    3    0.000000    0.000000
   -3   -1    0   23    3    0.000000    0.000000
   -3   -1    0   24    3    0.000000    0.000000
   -3   -1    0   25    3    0.000000    0.000000
   -3   -1    0   26    3    0.000000    0.000000
   -3   -1    0   27    3    0.000000    0.000000
   -3   -1    0    1    4    0.000000    0.000000
   -3   -1    0    2    4    0.000000    0.000000
   -3   -1    0    3    4    0.000000    0.000000
   -3   -1    0    4    4    0.000000    0.000000
   -3   -1    0    5    4    0.000000    0.000000
   -3   -1    0    6    4    0.000000    0.000000
   -3   -1    0    7    4    0.000000    0.000000
   -3   -1    0    8    4    0.000000    0.000000
   -3   -1    0    9    4    0.000000    0.000000
   -3   -1    0   10    4    0.000000    0.000000
   -3   -1    0   11    4    0.000000    0.000000
   -3   -1    0   12    4    0.000000    0.000000
   -3   -1    0   13    4    0.000000    0.000000
   -3   -1    0   14    4    0.000000    0.000000
   -3   -1    0   15    4    0.000000    0.000000
   -3   -1    0   16    4    0.000000    0.000000
   -3   -1    0   17    4    0.000000    0.000000
   -3   -1    0   18    4    0.000000    0.000000
   -3   -1    0   19    4    0.000000    0.000000
   -3   -1    0   20    4    0.000000    0.000000
   -3   -1    0   21    4    0.000000    0.000000
   -3   -1    0   22    4    0.000000    0.000000
   -3   -1    0   23    4    0.000000    0.000000
   -3   -1    0   24    4    0.000000    0.000000
   -3   -1    0   25    4    0.000000    0.000000
   -3   -1    0   26    4    0.000000    0.000000
   -3   -1    0   27    4    0.000000    0.000000
   -3   -1    0    1    5    0.000000    0.000000
   -3   -1    0    2    5    0.000000    0.000000
   -3   -1    0    3    5    0.000000    0.000000
   -3   -1    0    4    5    0.000000    0.000000
   -3   -1    0    5    5    0.000000    0.000000
   -3   -1    0    6    5    0.000000    0.000000
   -3   -1    0    7    5    0.000000    0.000000
   -3   -1    0    8    5    0.000000    0.000000
   -3   -1    0    9    5    0.000000    0.000000
   -3   -1    0   10    5    0.000000    0.000000
   -3   -1    0   11    5    0.000000    0.000000
   -3   -1    0   12    5    0.000000    0.000000
   -3   -1    0   13    5    0.000000    0.000000
   -3   -1    0   14    5    0.000000    0.000000
   -3   -1    0   15    5    0.000000    0.000000
   -3   -1    0   16    5    0.000000    0.000000
   -3   -1    0   17    5    0.000000    0.000000
   -3   -1    0   18    5    0.000000    0.000000
   -3   -1    0   19    5    0.000000    0.000000
   -3   -1    0   20    5    0.000000    0.000000
   -3   -1    0   21    5    0.000000    0.000000
   -3   -1    0   22    5    0.000000    0.000000
   -3   -1    0   23    5    0.000000    0.000000
   -3   -1    0   24    5    0.000000    0.000000
   -3   -1    0   25    5    0.000000    0.000000
   -3   -1    0   26    5    0.000000    0.000000
   -3   -1    0   27    5    0.000000    0.000000
   -3   -1    0    1    6    0.000000    0.000000
   -3   -1    0    2    6    0.000000    0.000000
   -3   -1    0    3    6    0.000000    0.000000
   -3   -1    0    4    6    0.000000    0.000000
   -3   -1    0    5    6    0.000000    0.000000
   -3   -1    0    6    6    0.000000    0.000000
   -3   -1    0    7    6    0.000000    0.000000
   -3   -1    0    8    6    0.000000    0.000000
   -3   -1    0    9    6    0.000000    0.000000
   -3   -1    0   10    6    0.000000    0.000000
   -3   -1    0   11    6    0.000000    0.000000
   -3   -1    0   12    6    0.000000    0.000000
   -3   -1    0   13    6    0.000000    0.000000
   -3   -1    0   14    6    0.000000    0.000000
   -3   -1    0   15    6    0.000000    0.000000
   -3   -1    0   16    6    0.000000    0.000000
   -3   -1    0   17    6    0.000000    0.000000
   -3   -1    0   18    6    0.000000    0.000000
   -3   -1    0   19    6    0.000000    0.000000
   -3   -1    0   20    6    0.000000    0.000000
   -3   -1    0   21    6    0.000000    0.000000
   -3   -1    0   22    6    0.000000    0.000000
   -3   -1    0   23    6    0.000000    0.000000
   -3   -1    0   24    6    0.000000    0.000000
   -3   -1    0   25    6    0.000000    0.000000
   -3   -1    0   26    6    0.000000    0.000000
   -3   -1    0   27    6    0.000000    0.000000
   -3   -1    0    1    7    0.000000    0.000000
   -3   -1    0    2    7    0.000000    0.000000
   -3   -1    0    3    7    0.000000    0.000000
   -3   -1    0    4    7    0.000000    0.000000
   -3   -1    0    5    7    0.000000    0.000000
   -3   -1    0    6    7    0.000000    0.000000
   -3   -1    0    7    7    0.000000    0.000000
   -3   -1    0    8    7    0.000000    0.000000
   -3   -1    0    9    7    0.000000    0.000000
   -3   -1    0   10    7    0.000000    0.000000
   -3   -1    0   11    7    0.000000    0.000000
   -3   -1    0   12    7    0.000000    0.000000
   -3   -1    0   13    7    0.000000    0.000000
   -3   -1    0   14    7    0.000000    0.000000
   -3   -1    0   15    7    0.000000    0.000000
   -3   -1    0   16    7    0.000000    0.000000
   -3   -1    0   17    7    0.000000    0.000000
   -3   -1    0   18    7    0.000000    0.000000
   -3   -1    0   19    7    0.000000    0.000000
   -3   -1    0   20    7    0.000000    0.000000
   -3   -1    0   21    7    0.000000    0.000000
   -3   -1    0   22    7    0.000000    0.000000
   -3   -1    0   23    7    0.000000    0.000000
   -3   -1    0   24    7    0.000000    0.000000
   -3   -1    0   25    7    0.000000    0.000000
   -3   -1    0   26    7    0.000000    0.000000
   -3   -1    0   27    7    0.000000    0.000000
   -3   -1    0    1    8    0.000000    0.000000
   -3   -1    0    2    8    0.000000    0.000000
   -3   -1    0    3    8    0.000000    0.000000
   -3   -1    0    4    8    0.000000    0.000000
   -3   -1    0    5    8    0.000000    0.000000
   -3   -1    0    6    8    0.000000    0.000000
   -3   -1    0    7    8    0.000000    0.000000
   -3   -1    0    8    8    0.000000    0.000000
   -3   -1    0    9    8    0.000000    0.000000
   -3   -1    0   10    8    0.000000    0.000000
   -3   -1    0   11    8    0.000000    0.000000
   -3   -1    0   12    8    0.000000    0.000000
   -3   -1    0   13    8    0.000000    0.000000
   -3   -1    0   14    8    0.000000    0.000000
   -3   -1    0   15    8    0.000000    0.000000
   -3   -1    0   16    8    0.000000    0.000000
   -3   -1    0   17    8    0.000000    0.000000
   -3   -1    0   18    8    0.000000    0.000000
   -3   -1    0   19    8    0.000000    0.000000
   -3   -1    0   20    8    0.000000    0.000000
   -3   -1    0   21    8    0.000000    0.000000
   -3   -1    0   22    8    0.000000    0.000000
   -3   -1    0   23    8    0.000000    0.000000
   -3   -1    0   24    8    0.000000    0.000000
   -3   -1    0   25    8    0.000000    0.000000
   -3   -1    0   26    8    0.000000    0.000000
   -3   -1    0   27    8    0.000000    0.000000
   -3   -1    0    1    9    0.000000    0.000000
   -3   -1    0    2    9    0.000000    0.000000
   -3   -1    0    3    9    0.000000    0.000000
   -3   -1    0    4    9    0.000000    0.000000
   -3   -1    0    5    9    0.000000    0.000000
   -3   -1    0    6    9    0.000000    0.000000
   -3   -1    0    7    9    0.000000    0.000000
   -3   -1    0    8    9    0.000000    0.000000
   -3   -1    0    9    9    0.000000    0.000000
   -3   -1    0   10    9    0.000000    0.000000
   -3   -1    0   11    9    0.000000    0.000000
   -3   -1    0   12    9    0.000000    0.000000
   -3   -1    0   13    9    0.000000    0.000000
   -3   -1    0   14    9    0.000000    0.000000
   -3   -1    0   15    9    0.000000    0.000000
   -3   -1    0   16    9    0.000000    0.000000
   -3   -1    0   17    9    0.000000    0.000000
   -3   -1    0   18    9    0.000000    0.000000
   -3   -1    0   19    9    0.000000    0.000000
   -3   -1    0   20    9    0.000000    0.000000
   -3   -1    0   21    9    0.000000    0.000000
   -3   -1    0   22    9    0.000000    0.000000
   -3   -1    0   23    9    0.000000    0.000000
   -3   -1    0   24    9    0.000000    0.000000
   -3   -1    0   25    9    0.000000    0.000000
   -3   -1    0   26    9    0.000000    0.000000
   -3   -1    0   27    9    0.000000    0.000000
   -3   -1    0    1   10    0.000000    0.000000
   -3   -1    0    2   10    0.000000    0.000000
   -3   -1    0    3   10    0.000000    0.000000
   -3   -1    0    4   10    0.000134    0.000000
   -3   -1    0    5   10    0.000009   -0.000000
   -3   -1    0    6   10   -0.000010    0.000000
   -3   -1    0    7   10    0.000000    0.000000
   -3   -1    0    8   10    0.000000    0.000000
   -3   -1    0    9   10    0.000000    0.000000
   -3   -1    0   10   10    0.000000    0.000000
   -3   -1    0   11   10    0.000000    0.000000
   -3   -1    0   12   10    0.000000    0.000000
   -3   -1    0   13   10    0.000000    0.000000
   -3   -1    0   14   10    0.000000    0.000000
   -3   -1    0   15   10    0.000000    0.000000
   -3   -1    0   16   10    0.000000    0.000000
   -3   -1    0   17   10    0.000000    0.000000
   -3   -1    0   18   10    0.000000    0.000000
   -3   -1    0   19   10    0.000000    0.000000
   -3   -1    0   20   10    0.000000    0.000000
   -3   -1    0   21   10    0.000000    0.000000
   -3   -1    0   22   10    0.000000    0.000000
   -3   -1    0   23   10    0.000000    0.000000
   -3   -1    0   24   10    0.000000    0.000000
   -3   -1    0   25   10    0.000000    0.000000
   -3   -1    0   26   10    0.000000    0.000000
   -3   -1    0   27   10    0.000000    0.000000
   -3   -1    0    1   11    0.000000    0.000000
   -3   -1    0    2   11    0.000000    0.000000
   -3   -1    0    3   11    0.000000    0.000000
   -3   -1    0    4   11   -0.000009    0.000000
   -3   -1    0    5   11   -0.000010    0.000000
   -3   -1    0    6   11   -0.000011    0.000000
   -3   -1    0    7   11    0.000000    0.000000
   -3   -1    0    8   11    0.000000    0.000000
   -3   -1    0    9   11    0.000000    0.000000
   -3   -1    0   10   11    0.000000    0.000000
   -3   -1    0   11   11    0.000000    0.000000
   -3   -1    0   12   11    0.000000    0.000000
   -3   -1    0   13   11    0.000000    0.000000
   -3   -1    0   14   11    0.000000    0.000000
   -3   -1    0   15   11    0.000000    0.000000
   -3   -1    0   16   11    0.000000    0.000000
   -3   -1    0   17   11    0.000000    0.000000
   -3   -1    0   18   11    0.000000    0.000000
   -3   -1    0   19   11    0.000000    0.000000
   -3   -1    0   20   11    0.000000    0.000000
   -3   -1    0   21   11    0.000000    0.000000
   -3   -1    0   22   11    0.000000    0.000000
   -3   -1    0   23   11    0.000000    0.000000
   -3   -1    0   24   11    0.000000    0.000000
   -3   -1    0   25   11    0.000000    0.000000
   -3   -1    0   26   11    0.000000    0.000000
   -3   -1    0   27   11    0.000000    0.000000
   -3   -1    0    1   12    0.000000    0.000000
   -3   -1    0    2   12    0.000000    0.000000
   -3   -1    0    3   12    0.000000    0.000000
   -3   -1    0    4   12    0.000013   -0.000000
   -3   -1    0    5   12   -0.000012   -0.000000
   -3   -1    0    6   12   -0.000023   -0.000000
   -3   -1    0    7   12    0.000000    0.000000
   -3   -1    0    8   12    0.000000    0.000000
   -3   -1    0    9   12    0.000000    0.000000
   -3   -1    0   10   12    0.000000    0.000000
   -3   -1    0   11   12    0.000000    0.000000
   -3   -1    0   12   12    0.000000    0.000000
   -3   -1    0   13   12    0.000000    0.000000
   -3   -1    0   14   12    0.000000    0.000000
   -3   -1    0   15   12    0.000000    0.000000
   -3   -1    0   16   12    0.000000    0.000000
   -3   -1    0   17   12    0.000000    0.000000
   -3   -1    0   18   12    0.000000    0.000000
   -3   -1    0   19   12    0.000000    0.000000
   -3   -1    0   20   12    0.000000    0.000000
   -3   -1    0   21   12    0.000000    0.000000
   -3   -1    0   22   12    0.000000    0.000000
   -3   -1    0   23   12    0.000000    0.000000
   -3   -1    0   24   12    0.000000    0.000000
   -3   -1    0   25   12    0.000000    0.000000
   -3   -1    0   26   12    0.000000    0.000000
   -3   -1    0   27   12    0.000000    0.000000
   -3   -1    0    1   13    0.000000    0.000000
   -3   -1    0    2   13    0.000000    0.000000
   -3   -1    0    3   13    0.000000    0.000000
   -3   -1    0    4   13    0.000000    0.000000
   -3   -1    0    5   13    0.000000    0.000000
   -3   -1    0    6   13    0.000000    0.000000
   -3   -1    0    7   13    0.000155   -0.000000
   -3   -1    0    8   13   -0.000001   -0.000000
   -3   -1    0    9   13   -0.000000   -0.000000
   -3   -1    0   10   13    0.000000    0.000000
   -3   -1    0   11   13    0.000000    0.000000
   -3   -1    0   12   13    0.000000    0.000000
   -3   -1    0   13   13    0.000000    0.000000
   -3   -1    0   14   13    0.000000    0.000000
   -3   -1    0   15   13    0.000000    0.000000
   -3   -1    0   16   13    0.000000    0.000000
   -3   -1    0   17   13    0.000000    0.000000
   -3   -1    0   18   13    0.000000    0.000000
   -3   -1    0   19   13    0.000000    0.000000
   -3   -1    0   20   13    0.000000    0.000000
   -3   -1    0   21   13    0.000000    0.000000
   -3   -1    0   22   13    0.000000    0.000000
   -3   -1    0   23   13    0.000000    0.000000
   -3   -1    0   24   13    0.000000    0.000000
   -3   -1    0   25   13    0.000000    0.000000
   -3   -1    0   26   13    0.000000    0.000000
   -3   -1    0   27   13    0.000000    0.000000
   -3   -1    0    1   14    0.000000    0.000000
   -3   -1    0    2   14    0.000000    0.000000
   -3   -1    0    3   14    0.000000    0.000000
   -3   -1    0    4   14    0.000000    0.000000
   -3   -1    0    5   14    0.000000    0.000000
   -3   -1    0    6   14    0.000000    0.000000
   -3   -1    0    7   14   -0.000001   -0.000000
   -3   -1    0    8   14   -0.000011   -0.000000
   -3   -1    0    9   14    0.000000    0.000000
   -3   -1    0   10   14    0.000000    0.000000
   -3   -1    0   11   14    0.000000    0.000000
   -3   -1    0   12   14    0.000000    0.000000
   -3   -1    0   13   14    0.000000    0.000000
   -3   -1    0   14   14    0.000000    0.000000
   -3   -1    0   15   14    0.000000    0.000000
   -3   -1    0   16   14    0.000000    0.000000
   -3   -1    0   17   14    0.000000    0.000000
   -3   -1    0   18   14    0.000000    0.000000
   -3   -1    0   19   14    0.000000    0.000000
   -3   -1    0   20   14    0.000000    0.000000
   -3   -1    0   21   14    0.000000    0.000000
   -3   -1    0   22   14    0.000000    0.000000
   -3   -1    0   23   14    0.000000    0.000000
   -3   -1    0   24   14    0.000000    0.000000
   -3   -1    0   25   14    0.000000    0.000000
   -3   -1    0   26   14    0.000000    0.000000
   -3   -1    0   27   14    0.000000    0.000000
   -3   -1    0    1   15    0.000000    0.000000
   -3   -1    0    2   15    0.000000    0.000000
   -3   -1    0    3   15    0.000000    0.000000
   -3   -1    0    4   15    0.000000    0.000000
   -3   -1    0    5   15    0.000000    0.000000
   -3   -1    0    6   15    0.000000    0.000000
   -3   -1    0    7   15    0.000000    0.000000
   -3   -1    0    8   15    0.000000    0.000000
   -3   -1    0    9   15   -0.000016   -0.000000
   -3   -1    0   10   15    0.000000    0.000000
   -3   -1    0   11   15    0.000000    0.000000
   -3   -1    0   12   15    0.000000    0.000000
   -3   -1    0   13   15    0.000000    0.000000
   -3   -1    0   14   15    0.000000    0.000000
   -3   -1    0   15   15    0.000000    0.000000
   -3   -1    0   16   15    0.000000    0.000000
   -3   -1    0   17   15    0.000000    0.000000
   -3   -1    0   18   15    0.000000    0.000000
   -3   -1    0   19   15    0.000000    0.000000
   -3   -1    0   20   15    0.000000    0.000000
   -3   -1    0   21   15    0.000000    0.000000
   -3   -1    0   22   15    0.000000    0.000000
   -3   -1    0   23   15    0.000000    0.000000
   -3   -1    0   24   15    0.000000    0.000000
   -3   -1    0   25   15    0.000000    0.000000
   -3   -1    0   26   15    0.000000    0.000000
   -3   -1    0   27   15    0.000000    0.000000
   -3   -1    0    1   16    0.000000    0.000000
   -3   -1    0    2   16    0.000000    0.000000
   -3   -1    0    3   16    0.000000    0.000000
   -3   -1    0    4   16    0.000000    0.000000
   -3   -1    0    5   16    0.000000    0.000000
   -3   -1    0    6   16    0.000000    0.000000
   -3   -1    0    7   16    0.000000    0.000000
   -3   -1    0    8   16    0.000000    0.000000
   -3   -1    0    9   16    0.000000    0.000000
   -3   -1    0   10   16    0.000000    0.000000
   -3   -1    0   11   16    0.000000    0.000000
   -3   -1    0   12   16    0.000000    0.000000
   -3   -1    0   13   16    0.000000    0.000000
   -3   -1    0   14   16    0.000000    0.000000
   -3   -1    0   15   16    0.000000    0.000000
   -3   -1    0   16   16    0.000000    0.000000
   -3   -1    0   17   16    0.000000    0.000000
   -3   -1    0   18   16    0.000000    0.000000
   -3   -1    0   19   16    0.000000    0.000000
   -3   -1    0   20   16    0.000000    0.000000
   -3   -1    0   21   16    0.000000    0.000000
   -3   -1    0   22   16    0.000000    0.000000
   -3   -1    0   23   16    0.000000    0.000000
   -3   -1    0   24   16    0.000000    0.000000
   -3   -1    0   25   16    0.000000    0.000000
   -3   -1    0   26   16    0.000000    0.000000
   -3   -1    0   27   16    0.000000    0.000000
   -3   -1    0    1   17    0.000000    0.000000
   -3   -1    0    2   17    0.000000    0.000000
   -3   -1    0    3   17    0.000000    0.000000
   -3   -1    0    4   17    0.000000    0.000000
   -3   -1    0    5   17    0.000000    0.000000
   -3   -1    0    6   17    0.000000    0.000000
   -3   -1    0    7   17    0.000000    0.000000
   -3   -1    0    8   17    0.000000    0.000000
   -3   -1    0    9   17    0.000000    0.000000
   -3   -1    0   10   17    0.000000    0.000000
   -3   -1    0   11   17    0.000000    0.000000
   -3   -1    0   12   17    0.000000    0.000000
   -3   -1    0   13   17    0.000000    0.000000
   -3   -1    0   14   17    0.000000    0.000000
   -3   -1    0   15   17    0.000000    0.000000
   -3   -1    0   16   17    0.000000    0.000000
   -3   -1    0   17   17    0.000000    0.000000
   -3   -1    0   18   17    0.000000    0.000000
   -3   -1    0   19   17    0.000000    0.000000
   -3   -1    0   20   17    0.000000    0.000000
   -3   -1    0   21   17    0.000000    0.000000
   -3   -1    0   22   17    0.000000    0.000000
   -3   -1    0   23   17    0.000000    0.000000
   -3   -1    0   24   17    0.000000    0.000000
   -3   -1    0   25   17    0.000000    0.000000
   -3   -1    0   26   17    0.000000    0.000000
   -3   -1    0   27   17    0.000000    0.000000
   -3   -1    0    1   18    0.000000    0.000000
   -3   -1    0    2   18    0.000000    0.000000
   -3   -1    0    3   18    0.000000    0.000000
   -3   -1    0    4   18    0.000000    0.000000
   -3   -1    0    5   18    0.000000    0.000000
   -3   -1    0    6   18    0.000000    0.000000
   -3   -1    0    7   18    0.000000    0.000000
   -3   -1    0    8   18    0.000000    0.000000
   -3   -1    0    9   18    0.000000    0.000000
   -3   -1    0   10   18    0.000000    0.000000
   -3   -1    0   11   18    0.000000    0.000000
   -3   -1    0   12   18    0.000000    0.000000
   -3   -1    0   13   18    0.000000    0.000000
   -3   -1    0   14   18    0.000000    0.000000
   -3   -1    0   15   18    0.000000    0.000000
   -3   -1    0   16   18    0.000000    0.000000
   -3   -1    0   17   18    0.000000    0.000000
   -3   -1    0   18   18    0.000000    0.000000
   -3   -1    0   19   18    0.000000    0.000000
   -3   -1    0   20   18    0.000000    0.000000
   -3   -1    0   21   18    0.000000    0.000000
   -3   -1    0   22   18    0.000000    0.000000
   -3   -1    0   23   18    0.000000    0.000000
   -3   -1    0   24   18    0.000000    0.000000
   -3   -1    0   25   18    0.000000    0.000000
   -3   -1    0   26   18    0.000000    0.000000
   -3   -1    0   27   18    0.000000    0.000000
   -3   -1    0    1   19    0.000055   -0.000000
   -3   -1    0    2   19   -0.000497    0.000000
   -3   -1    0    3   19    0.000268    0.000000
   -3   -1    0    4   19    0.000064   -0.000000
   -3   -1    0    5   19    0.000468    0.000000
   -3   -1    0    6   19   -0.000300    0.000000
   -3   -1    0    7   19   -0.000283   -0.000000
   -3   -1    0    8   19   -0.000075   -0.000000
   -3   -1    0    9   19    0.000127   -0.000000
   -3   -1    0   10   19    0.000000    0.000000
   -3   -1    0   11   19    0.000000    0.000000
   -3   -1    0   12   19    0.000000    0.000000
   -3   -1    0   13   19    0.000112   -0.000000
   -3   -1    0   14   19   -0.000001    0.000000
   -3   -1    0   15   19    0.000000    0.000000
   -3   -1    0   16   19    0.000000    0.000000
   -3   -1    0   17   19    0.000000    0.000000
   -3   -1    0   18   19    0.000000    0.000000
   -3   -1    0   19   19    0.000000    0.000000
   -3   -1    0   20   19    0.000000    0.000000
   -3   -1    0   21   19    0.000000    0.000000
   -3   -1    0   22   19    0.000000    0.000000
   -3   -1    0   23   19    0.000000    0.000000
   -3   -1    0   24   19    0.000000    0.000000
   -3   -1    0   25   19    0.000000    0.000000
   -3   -1    0   26   19    0.000000    0.000000
   -3   -1    0   27   19    0.000000    0.000000
   -3   -1    0    1   20    0.000177   -0.000000
   -3   -1    0    2   20   -0.000060    0.000000
   -3   -1    0    3   20   -0.000041   -0.000000
   -3   -1    0    4   20    0.000010   -0.000000
   -3   -1    0    5   20    0.000083    0.000000
   -3   -1    0    6   20   -0.000248    0.000000
   -3   -1    0    7   20    0.000054   -0.000000
   -3   -1    0    8   20    0.000230   -0.000000
   -3   -1    0    9   20    0.000187    0.000000
   -3   -1    0   10   20    0.000000    0.000000
   -3   -1    0   11   20    0.000000    0.000000
   -3   -1    0   12   20    0.000000    0.000000
   -3   -1    0   13   20   -0.000001   -0.000000
   -3   -1    0   14   20   -0.000008    0.000000
   -3   -1    0   15   20    0.000000   -0.000000
   -3   -1    0   16   20    0.000000    0.000000
   -3   -1    0   17   20    0.000000    0.000000
   -3   -1    0   18   20    0.000000    0.000000
   -3   -1    0   19   20    0.000000    0.000000
   -3   -1    0   20   20    0.000000    0.000000
   -3   -1    0   21   20    0.000000    0.000000
   -3   -1    0   22   20    0.000000    0.000000
   -3   -1    0   23   20    0.000000    0.000000
   -3   -1    0   24   20    0.000000    0.000000
   -3   -1    0   25   20    0.000000    0.000000
   -3   -1    0   26   20    0.000000    0.000000
   -3   -1    0   27   20    0.000000    0.000000
   -3   -1    0    1   21    0.000124   -0.000000
   -3   -1    0    2   21   -0.000341   -0.000000
   -3   -1    0    3   21   -0.000074   -0.000000
   -3   -1    0    4   21    0.000209   -0.000000
   -3   -1    0    5   21    0.000047   -0.000000
   -3   -1    0    6   21   -0.000229   -0.000000
   -3   -1    0    7   21   -0.000094    0.000000
   -3   -1    0    8   21    0.000190   -0.000000
   -3   -1    0    9   21    0.000008   -0.000000
   -3   -1    0   10   21    0.000000    0.000000
   -3   -1    0   11   21    0.000000    0.000000
   -3   -1    0   12   21    0.000000    0.000000
   -3   -1    0   13   21   -0.000000    0.000000
   -3   -1    0   14   21    0.000000    0.000000
   -3   -1    0   15   21   -0.000012    0.000000
   -3   -1    0   16   21    0.000000    0.000000
   -3   -1    0   17   21    0.000000    0.000000
   -3   -1    0   18   21    0.000000    0.000000
   -3   -1    0   19   21    0.000000    0.000000
   -3   -1    0   20   21    0.000000    0.000000
   -3   -1    0   21   21    0.000000    0.000000
   -3   -1    0   22   21    0.000000    0.000000
   -3   -1    0   23   21    0.000000    0.000000
   -3   -1    0   24   21    0.000000    0.000000
   -3   -1    0   25   21    0.000000    0.000000
   -3   -1    0   26   21    0.000000    0.000000
   -3   -1    0   27   21    0.000000    0.000000
   -3   -1    0    1   22   -0.000306    0.000000
   -3   -1    0    2   22    0.000252    0.000000
   -3   -1    0    3   22    0.000022   -0.000000
   -3   -1    0    4   22    0.000063   -0.000000
   -3   -1    0    5   22   -0.000458    0.000000
   -3   -1    0    6   22    0.000233    0.000000
   -3   -1    0    7   22    0.000047    0.000000
   -3   -1    0    8   22    0.000432    0.000000
   -3   -1    0    9   22   -0.000270    0.000000
   -3   -1    0   10   22    0.000000    0.000000
   -3   -1    0   11   22    0.000000    0.000000
   -3   -1    0   12   22    0.000000    0.000000
   -3   -1    0   13   22    0.000000    0.000000
   -3   -1    0   14   22    0.000000    0.000000
   -3   -1    0   15   22    0.000000    0.000000
   -3   -1    0   16   22    0.000134    0.000000
   -3   -1    0   17   22    0.000003   -0.000000
   -3   -1    0   18   22   -0.000014    0.000000
   -3   -1    0   19   22    0.000000    0.000000
   -3   -1    0   20   22    0.000000    0.000000
   -3   -1    0   21   22    0.000000    0.000000
   -3   -1    0   22   22    0.000000    0.000000
   -3   -1    0   23   22    0.000000    0.000000
   -3   -1    0   24   22    0.000000    0.000000
   -3   -1    0   25   22    0.000000    0.000000
   -3   -1    0   26   22    0.000000    0.000000
   -3   -1    0   27   22    0.000000    0.000000
   -3   -1    0    1   23   -0.000096    0.000000
   -3   -1    0    2   23   -0.000198   -0.000000
   -3   -1    0    3   23   -0.000064   -0.000000
   -3   -1    0    4   23    0.000152   -0.000000
   -3   -1    0    5   23    0.000011    0.000000
   -3   -1    0    6   23   -0.000035    0.000000
   -3   -1    0    7   23    0.000004   -0.000000
   -3   -1    0    8   23    0.000058    0.000000
   -3   -1    0    9   23   -0.000228   -0.000000
   -3   -1    0   10   23    0.000000    0.000000
   -3   -1    0   11   23    0.000000    0.000000
   -3   -1    0   12   23    0.000000    0.000000
   -3   -1    0   13   23    0.000000    0.000000
   -3   -1    0   14   23    0.000000    0.000000
   -3   -1    0   15   23    0.000000    0.000000
   -3   -1    0   16   23   -0.000008   -0.000000
   -3   -1    0   17   23   -0.000026   -0.000000
   -3   -1    0   18   23   -0.000002    0.000000
   -3   -1    0   19   23    0.000000    0.000000
   -3   -1    0   20   23    0.000000    0.000000
   -3   -1    0   21   23    0.000000    0.000000
   -3   -1    0   22   23    0.000000    0.000000
   -3   -1    0   23   23    0.000000    0.000000
   -3   -1    0   24   23    0.000000    0.000000
   -3   -1    0   25   23    0.000000    0.000000
   -3   -1    0   26   23    0.000000    0.000000
   -3   -1    0   27   23    0.000000    0.000000
   -3   -1    0    1   24   -0.000056   -0.000000
   -3   -1    0    2   24    0.000036   -0.000000
   -3   -1    0    3   24    0.000390   -0.000000
   -3   -1    0    4   24    0.000127   -0.000000
   -3   -1    0    5   24   -0.000395   -0.000000
   -3   -1    0    6   24   -0.000107   -0.000000
   -3   -1    0    7   24    0.000198   -0.000000
   -3   -1    0    8   24    0.000064   -0.000000
   -3   -1    0    9   24   -0.000194   -0.000000
   -3   -1    0   10   24    0.000000    0.000000
   -3   -1    0   11   24    0.000000    0.000000
   -3   -1    0   12   24    0.000000    0.000000
   -3   -1    0   13   24    0.000000    0.000000
   -3   -1    0   14   24    0.000000    0.000000
   -3   -1    0   15   24    0.000000    0.000000
   -3   -1    0   16   24    0.000014   -0.000000
   -3   -1    0   17   24   -0.000002   -0.000000
   -3   -1    0   18   24   -0.000006   -0.000000
   -3   -1    0   19   24    0.000000    0.000000
   -3   -1    0   20   24    0.000000    0.000000
   -3   -1    0   21   24    0.000000    0.000000
   -3   -1    0   22   24    0.000000    0.000000
   -3   -1    0   23   24    0.000000    0.000000
   -3   -1    0   24   24    0.000000    0.000000
   -3   -1    0   25   24    0.000000    0.000000
   -3   -1    0   26   24    0.000000    0.000000
   -3   -1    0   27   24    0.000000    0.000000
   -3   -1    0    1   25    0.000000    0.000000
   -3   -1    0    2   25    0.000000    0.000000
   -3   -1    0    3   25    0.000000    0.000000
   -3   -1    0    4   25   -0.000306   -0.000000
   -3   -1    0    5   25    0.000203    0.000000
   -3   -1    0    6   25   -0.000041    0.000000
   -3   -1    0    7   25    0.000037    0.000000
   -3   -1    0    8   25   -0.000453    0.000000
   -3   -1    0    9   25    0.000251    0.000000
   -3   -1    0   10   25    0.000000    0.000000
   -3   -1    0   11   25    0.000000    0.000000
   -3   -1    0   12   25    0.000000    0.000000
   -3   -1    0   13   25    0.000000    0.000000
   -3   -1    0   14   25    0.000000    0.000000
   -3   -1    0   15   25    0.000000    0.000000
   -3   -1    0   16   25    0.000000    0.000000
   -3   -1    0   17   25    0.000000    0.000000
   -3   -1    0   18   25    0.000000    0.000000
   -3   -1    0   19   25    0.000000    0.000000
   -3   -1    0   20   25    0.000000    0.000000
   -3   -1    0   21   25    0.000000    0.000000
   -3   -1    0   22   25    0.000000    0.000000
   -3   -1    0   23   25    0.000000    0.000000
   -3   -1    0   24   25    0.000000    0.000000
   -3   -1    0   25   25    0.000000    0.000000
   -3   -1    0   26   25    0.000000    0.000000
   -3   -1    0   27   25    0.000000    0.000000
   -3   -1    0    1   26    0.000000    0.000000
   -3   -1    0    2   26    0.000000    0.000000
   -3   -1    0    3   26    0.000000    0.000000
   -3   -1    0    4   26   -0.000102   -0.000000
   -3   -1    0    5   26   -0.000154   -0.000000
   -3   -1    0    6   26    0.000006   -0.000000
   -3   -1    0    7   26    0.000171    0.000000
   -3   -1    0    8   26   -0.000058   -0.000000
   -3   -1    0    9   26   -0.000008   -0.000000
   -3   -1    0   10   26    0.000000    0.000000
   -3   -1    0   11   26    0.000000    0.000000
   -3   -1    0   12   26    0.000000    0.000000
   -3   -1    0   13   26    0.000000    0.000000
   -3   -1    0   14   26    0.000000    0.000000
   -3   -1    0   15   26    0.000000    0.000000
   -3   -1    0   16   26    0.000000    0.000000
   -3   -1    0   17   26    0.000000    0.000000
   -3   -1    0   18   26    0.000000    0.000000
   -3   -1    0   19   26    0.000000    0.000000
   -3   -1    0   20   26    0.000000    0.000000
   -3   -1    0   21   26    0.000000    0.000000
   -3   -1    0   22   26    0.000000    0.000000
   -3   -1    0   23   26    0.000000    0.000000
   -3   -1    0   24   26    0.000000    0.000000
   -3   -1    0   25   26    0.000000    0.000000
   -3   -1    0   26   26    0.000000    0.000000
   -3   -1    0   27   26    0.000000    0.000000
   -3   -1    0    1   27    0.000000    0.000000
   -3   -1    0    2   27    0.000000    0.000000
   -3   -1    0    3   27    0.000000    0.000000
   -3   -1    0    4   27   -0.000087   -0.000000
   -3   -1    0    5   27    0.000064   -0.000000
   -3   -1    0    6   27    0.000326   -0.000000
   -3   -1    0    7   27    0.000113   -0.000000
   -3   -1    0    8   27   -0.000303   -0.000000
   -3   -1    0    9   27   -0.000067   -0.000000
   -3   -1    0   10   27    0.000000    0.000000
   -3   -1    0   11   27    0.000000    0.000000
   -3   -1    0   12   27    0.000000    0.000000
   -3   -1    0   13   27    0.000000    0.000000
   -3   -1    0   14   27    0.000000    0.000000
   -3   -1    0   15   27    0.000000    0.000000
   -3   -1    0   16   27    0.000000    0.000000
   -3   -1    0   17   27    0.000000    0.000000
   -3   -1    0   18   27    0.000000    0.000000
   -3   -1    0   19   27    0.000000    0.000000
   -3   -1    0   20   27    0.000000    0.000000
   -3   -1    0   21   27    0.000000    0.000000
   -3   -1    0   22   27    0.000000    0.000000
   -3   -1    0   23   27    0.000000    0.000000
   -3   -1    0   24   27    0.000000    0.000000
   -3   -1    0   25   27    0.000000    0.000000
   -3   -1    0   26   27    0.000000    0.000000
   -3   -1    0   27   27    0.000000    0.000000
   -3    0    0    1    1    0.000000    0.000000
   -3    0    0    2    1    0.000000    0.000000
   -3    0    0    3    1    0.000000    0.000000
   -3    0    0    4    1    0.000000    0.000000
   -3    0    0    5    1    0.000000    0.000000
   -3    0    0    6    1    0.000000    0.000000
   -3    0    0    7    1    0.000000    0.000000
   -3    0    0    8    1    0.000000    0.000000
   -3    0    0    9    1    0.000000    0.000000
   -3    0    0   10    1    0.000000    0.000000
   -3    0    0   11    1    0.000000    0.000000
   -3    0    0   12    1    0.000000    0.000000
   -3    0    0   13    1    0.000000    0.000000
   -3    0    0   14    1    0.000000    0.000000
   -3    0    0   15    1    0.000000    0.000000
   -3    0    0   16    1    0.000000    0.000000
   -3    0    0   17    1    0.000000    0.000000
   -3    0    0   18    1    0.000000    0.000000
   -3    0    0   19    1    0.000000    0.000000
   -3    0    0   20    1    0.000000    0.000000
   -3    0    0   21    1    0.000000    0.000000
   -3    0    0   22    1    0.000000    0.000000
   -3    0    0   23    1    0.000000    0.000000
   -3    0    0   24    1    0.000000    0.000000
   -3    0    0   25    1    0.000000    0.000000
   -3    0    0   26    1    0.000000    0.000000
   -3    0    0   27    1    0.000000    0.000000
   -3    0    0    1    2    0.000000    0.000000
   -3    0    0    2    2    0.000000    0.000000
   -3    0    0    3    2    0.000000    0.000000
   -3    0    0    4    2    0.000000    0.000000
   -3    0    0    5    2    0.000000    0.000000
   -3    0    0    6    2    0.000000    0.000000
   -3    0    0    7    2    0.000000    0.000000
   -3    0    0    8    2    0.000000    0.000000
   -3    0    0    9    2    0.000000    0.000000
   -3    0    0   10    2    0.000000    0.000000
   -3    0    0   11    2    0.000000    0.000000
   -3    0    0   12    2    0.000000    0.000000
   -3    0    0   13    2    0.000000    0.000000
   -3    0    0   14    2    0.000000    0.000000
   -3    0    0   15    2    0.000000    0.000000
   -3    0    0   16    2    0.000000    0.000000
   -3    0    0   17    2    0.000000    0.000000
   -3    0    0   18    2    0.000000    0.000000
   -3    0    0   19    2    0.000000    0.000000
   -3    0    0   20    2    0.000000    0.000000
   -3    0    0   21    2    0.000000    0.000000
   -3    0    0   22    2    0.000000    0.000000
   -3    0    0   23    2    0.000000    0.000000
   -3    0    0   24    2    0.000000    0.000000
   -3    0    0   25    2    0.000000    0.000000
   -3    0    0   26    2    0.000000    0.000000
   -3    0    0   27    2    0.000000    0.000000
   -3    0    0    1    3    0.000000    0.000000
   -3    0    0    2    3    0.000000    0.000000
   -3    0    0    3    3    0.000000    0.000000
   -3    0    0    4    3    0.000000    0.000000
   -3    0    0    5    3    0.000000    0.000000
   -3    0    0    6    3    0.000000    0.000000
   -3    0    0    7    3    0.000000    0.000000
   -3    0    0    8    3    0.000000    0.000000
   -3    0    0    9    3    0.000000    0.000000
   -3    0    0   10    3    0.000000    0.000000
   -3    0    0   11    3    0.000000    0.000000
   -3    0    0   12    3    0.000000    0.000000
   -3    0    0   13    3    0.000000    0.000000
   -3    0    0   14    3    0.000000    0.000000
   -3    0    0   15    3    0.000000    0.000000
   -3    0    0   16    3    0.000000    0.000000
   -3    0    0   17    3    0.000000    0.000000
   -3    0    0   18    3    0.000000    0.000000
   -3    0    0   19    3    0.000000    0.000000
   -3    0    0   20    3    0.000000    0.000000
   -3    0    0   21    3    0.000000    0.000000
   -3    0    0   22    3    0.000000    0.000000
   -3    0    0   23    3    0.000000    0.000000
   -3    0    0   24    3    0.000000    0.000000
   -3    0    0   25    3    0.000000    0.000000
   -3    0    0   26    3    0.000000    0.000000
   -3    0    0   27    3    0.000000    0.000000
   -3    0    0    1    4    0.000000    0.000000
   -3    0    0    2    4    0.000000    0.000000
   -3    0    0    3    4    0.000000    0.000000
   -3    0    0    4    4    0.000000    0.000000
   -3    0    0    5    4    0.000000    0.000000
   -3    0    0    6    4    0.000000    0.000000
   -3    0    0    7    4    0.000000    0.000000
   -3    0    0    8    4    0.000000    0.000000
   -3    0    0    9    4    0.000000    0.000000
   -3    0    0   10    4    0.000000    0.000000
   -3    0    0   11    4    0.000000    0.000000
   -3    0    0   12    4    0.000000    0.000000
   -3    0    0   13    4    0.000000    0.000000
   -3    0    0   14    4    0.000000    0.000000
   -3    0    0   15    4    0.000000    0.000000
   -3    0    0   16    4    0.000000    0.000000
   -3    0    0   17    4    0.000000    0.000000
   -3    0    0   18    4    0.000000    0.000000
   -3    0    0   19    4    0.000000    0.000000
   -3    0    0   20    4    0.000000    0.000000
   -3    0    0   21    4    0.000000    0.000000
   -3    0    0   22    4    0.000000    0.000000
   -3    0    0   23    4    0.000000    0.000000
   -3    0    0   24    4    0.000000    0.000000
   -3    0    0   25    4    0.000000    0.000000
   -3    0    0   26    4    0.000000    0.000000
   -3    0    0   27    4    0.000000    0.000000
   -3    0    0    1    5    0.000000    0.000000
   -3    0    0    2    5    0.000000    0.000000
   -3    0    0    3    5    0.000000    0.000000
   -3    0    0    4    5    0.000000    0.000000
   -3    0    0    5    5    0.000000    0.000000
   -3    0    0    6    5    0.000000    0.000000
   -3    0    0    7    5    0.000000    0.000000
   -3    0    0    8    5    0.000000    0.000000
   -3    0    0    9    5    0.000000    0.000000
   -3    0    0   10    5    0.000000    0.000000
   -3    0    0   11    5    0.000000    0.000000
   -3    0    0   12    5    0.000000    0.000000
   -3    0    0   13    5    0.000000    0.000000
   -3    0    0   14    5    0.000000    0.000000
   -3    0    0   15    5    0.000000    0.000000
   -3    0    0   16    5    0.000000    0.000000
   -3    0    0   17    5    0.000000    0.000000
   -3    0    0   18    5    0.000000    0.000000
   -3    0    0   19    5    0.000000    0.000000
   -3    0    0   20    5    0.000000    0.000000
   -3    0    0   21    5    0.000000    0.000000
   -3    0    0   22    5    0.000000    0.000000
   -3    0    0   23    5    0.000000    0.000000
   -3    0    0   24    5    0.000000    0.000000
   -3    0    0   25    5    0.000000    0.000000
   -3    0    0   26    5    0.000000    0.000000
   -3    0    0   27    5    0.000000    0.000000
   -3    0    0    1    6    0.000000    0.000000
   -3    0    0    2    6    0.000000    0.000000
[...]
    3    2    0    7   13    0.000000    0.000000
    3    2    0    8   13    0.000000    0.000000
    3    2    0    9   13    0.000000    0.000000
    3    2    0   10   13    0.000000    0.000000
    3    2    0   11   13    0.000000    0.000000
    3    2    0   12   13    0.000000    0.000000
    3    2    0   13   13    0.000000    0.000000
    3    2    0   14   13    0.000000    0.000000
    3    2    0   15   13    0.000000    0.000000
    3    2    0   16   13    0.000000    0.000000
    3    2    0   17   13    0.000000    0.000000
    3    2    0   18   13    0.000000    0.000000
    3    2    0   19   13    0.000000    0.000000
    3    2    0   20   13    0.000000    0.000000
    3    2    0   21   13    0.000000    0.000000
    3    2    0   22   13    0.000000    0.000000
    3    2    0   23   13    0.000000    0.000000
    3    2    0   24   13    0.000000    0.000000
    3    2    0   25   13    0.000000    0.000000
    3    2    0   26   13    0.000000    0.000000
    3    2    0   27   13    0.000000    0.000000
    3    2    0    1   14    0.000000    0.000000
    3    2    0    2   14    0.000000    0.000000
    3    2    0    3   14    0.000000    0.000000
    3    2    0    4   14    0.000000    0.000000
    3    2    0    5   14    0.000000    0.000000
    3    2    0    6   14    0.000000    0.000000
    3    2    0    7   14    0.000000    0.000000
    3    2    0    8   14    0.000000    0.000000
    3    2    0    9   14    0.000000    0.000000
    3    2    0   10   14    0.000000    0.000000
    3    2    0   11   14    0.000000    0.000000
    3    2    0   12   14    0.000000    0.000000
    3    2    0   13   14    0.000000    0.000000
    3    2    0   14   14    0.000000    0.000000
    3    2    0   15   14    0.000000    0.000000
    3    2    0   16   14    0.000000    0.000000
    3    2    0   17   14    0.000000    0.000000
    3    2    0   18   14    0.000000    0.000000
    3    2    0   19   14    0.000000    0.000000
    3    2    0   20   14    0.000000    0.000000
    3    2    0   21   14    0.000000    0.000000
    3    2    0   22   14    0.000000    0.000000
    3    2    0   23   14    0.000000    0.000000
    3    2    0   24   14    0.000000    0.000000
    3    2    0   25   14    0.000000    0.000000
    3    2    0   26   14    0.000000    0.000000
    3    2    0   27   14    0.000000    0.000000
    3    2    0    1   15    0.000000    0.000000
    3    2    0    2   15    0.000000    0.000000
    3    2    0    3   15    0.000000    0.000000
    3    2    0    4   15    0.000000    0.000000
    3    2    0    5   15    0.000000    0.000000
    3    2    0    6   15    0.000000    0.000000
    3    2    0    7   15    0.000000    0.000000
    3    2    0    8   15    0.000000    0.000000
    3    2    0    9   15    0.000000    0.000000
    3    2    0   10   15    0.000000    0.000000
    3    2    0   11   15    0.000000    0.000000
    3    2    0   12   15    0.000000    0.000000
    3    2    0   13   15    0.000000    0.000000
    3    2    0   14   15    0.000000    0.000000
    3    2    0   15   15    0.000000    0.000000
    3    2    0   16   15    0.000000    0.000000
    3    2    0   17   15    0.000000    0.000000
    3    2    0   18   15    0.000000    0.000000
    3    2    0   19   15    0.000000    0.000000
    3    2    0   20   15    0.000000    0.000000
    3    2    0   21   15    0.000000    0.000000
    3    2    0   22   15    0.000000    0.000000
    3    2    0   23   15    0.000000    0.000000
    3    2    0   24   15    0.000000    0.000000
    3    2    0   25   15    0.000000    0.000000
    3    2    0   26   15    0.000000    0.000000
    3    2    0   27   15    0.000000    0.000000
    3    2    0    1   16    0.000000    0.000000
    3    2    0    2   16    0.000000    0.000000
    3    2    0    3   16    0.000000    0.000000
    3    2    0    4   16    0.000000    0.000000
    3    2    0    5   16    0.000000    0.000000
    3    2    0    6   16    0.000000    0.000000
    3    2    0    7   16    0.000000    0.000000
    3    2    0    8   16    0.000000    0.000000
    3    2    0    9   16    0.000000    0.000000
    3    2    0   10   16    0.000000    0.000000
    3    2    0   11   16    0.000000    0.000000
    3    2    0   12   16    0.000000    0.000000
    3    2    0   13   16    0.000000    0.000000
    3    2    0   14   16    0.000000    0.000000
    3    2    0   15   16    0.000000    0.000000
    3    2    0   16   16    0.000000    0.000000
    3    2    0   17   16    0.000000    0.000000
    3    2    0   18   16    0.000000    0.000000
    3    2    0   19   16    0.000000    0.000000
    3    2    0   20   16    0.000000    0.000000
    3    2    0   21   16    0.000000    0.000000
    3    2    0   22   16    0.000000    0.000000
    3    2    0   23   16    0.000000    0.000000
    3    2    0   24   16    0.000000    0.000000
    3    2    0   25   16    0.000000    0.000000
    3    2    0   26   16    0.000000    0.000000
    3    2    0   27   16    0.000000    0.000000
    3    2    0    1   17    0.000000    0.000000
    3    2    0    2   17    0.000000    0.000000
    3    2    0    3   17    0.000000    0.000000
    3    2    0    4   17    0.000000    0.000000
    3    2    0    5   17    0.000000    0.000000
    3    2    0    6   17    0.000000    0.000000
    3    2    0    7   17    0.000000    0.000000
    3    2    0    8   17    0.000000    0.000000
    3    2    0    9   17    0.000000    0.000000
    3    2    0   10   17    0.000000    0.000000
    3    2    0   11   17    0.000000    0.000000
    3    2    0   12   17    0.000000    0.000000
    3    2    0   13   17    0.000000    0.000000
    3    2    0   14   17    0.000000    0.000000
    3    2    0   15   17    0.000000    0.000000
    3    2    0   16   17    0.000000    0.000000
    3    2    0   17   17    0.000000    0.000000
    3    2    0   18   17    0.000000    0.000000
    3    2    0   19   17    0.000000    0.000000
    3    2    0   20   17    0.000000    0.000000
    3    2    0   21   17    0.000000    0.000000
    3    2    0   22   17    0.000000    0.000000
    3    2    0   23   17    0.000000    0.000000
    3    2    0   24   17    0.000000    0.000000
    3    2    0   25   17    0.000000    0.000000
    3    2    0   26   17    0.000000    0.000000
    3    2    0   27   17    0.000000    0.000000
    3    2    0    1   18    0.000000    0.000000
    3    2    0    2   18    0.000000    0.000000
    3    2    0    3   18    0.000000    0.000000
    3    2    0    4   18    0.000000    0.000000
    3    2    0    5   18    0.000000    0.000000
    3    2    0    6   18    0.000000    0.000000
    3    2    0    7   18    0.000000    0.000000
    3    2    0    8   18    0.000000    0.000000
    3    2    0    9   18    0.000000    0.000000
    3    2    0   10   18    0.000000    0.000000
    3    2    0   11   18    0.000000    0.000000
    3    2    0   12   18    0.000000    0.000000
    3    2    0   13   18    0.000000    0.000000
    3    2    0   14   18    0.000000    0.000000
    3    2    0   15   18    0.000000    0.000000
    3    2    0   16   18    0.000000    0.000000
    3    2    0   17   18    0.000000    0.000000
    3    2    0   18   18    0.000000    0.000000
    3    2    0   19   18    0.000000    0.000000
    3    2    0   20   18    0.000000    0.000000
    3    2    0   21   18    0.000000    0.000000
    3    2    0   22   18    0.000000    0.000000
    3    2    0   23   18    0.000000    0.000000
    3    2    0   24   18    0.000000    0.000000
    3    2    0   25   18    0.000000    0.000000
    3    2    0   26   18    0.000000    0.000000
    3    2    0   27   18    0.000000    0.000000
    3    2    0    1   19    0.000000    0.000000
    3    2    0    2   19    0.000000    0.000000
    3    2    0    3   19    0.000000    0.000000
    3    2    0    4   19    0.000000    0.000000
    3    2    0    5   19    0.000000    0.000000
    3    2    0    6   19    0.000000    0.000000
    3    2    0    7   19    0.000000    0.000000
    3    2    0    8   19    0.000000    0.000000
    3    2    0    9   19    0.000000    0.000000
    3    2    0   10   19    0.000000    0.000000
    3    2    0   11   19    0.000000    0.000000
    3    2    0   12   19    0.000000    0.000000
    3    2    0   13   19    0.000000    0.000000
    3    2    0   14   19    0.000000    0.000000
    3    2    0   15   19    0.000000    0.000000
    3    2    0   16   19    0.000000    0.000000
    3    2    0   17   19    0.000000    0.000000
    3    2    0   18   19    0.000000    0.000000
    3    2    0   19   19    0.000000    0.000000
    3    2    0   20   19    0.000000    0.000000
    3    2    0   21   19    0.000000    0.000000
    3    2    0   22   19    0.000000    0.000000
    3    2    0   23   19    0.000000    0.000000
    3    2    0   24   19    0.000000    0.000000
    3    2    0   25   19    0.000000    0.000000
    3    2    0   26   19    0.000000    0.000000
    3    2    0   27   19    0.000000    0.000000
    3    2    0    1   20    0.000000    0.000000
    3    2    0    2   20    0.000000    0.000000
    3    2    0    3   20    0.000000    0.000000
    3    2    0    4   20    0.000000    0.000000
    3    2    0    5   20    0.000000    0.000000
    3    2    0    6   20    0.000000    0.000000
    3    2    0    7   20    0.000000    0.000000
    3    2    0    8   20    0.000000    0.000000
    3    2    0    9   20    0.000000    0.000000
    3    2    0   10   20    0.000000    0.000000
    3    2    0   11   20    0.000000    0.000000
    3    2    0   12   20    0.000000    0.000000
    3    2    0   13   20    0.000000    0.000000
    3    2    0   14   20    0.000000    0.000000
    3    2    0   15   20    0.000000    0.000000
    3    2    0   16   20    0.000000    0.000000
    3    2    0   17   20    0.000000    0.000000
    3    2    0   18   20    0.000000    0.000000
    3    2    0   19   20    0.000000    0.000000
    3    2    0   20   20    0.000000    0.000000
    3    2    0   21   20    0.000000    0.000000
    3    2    0   22   20    0.000000    0.000000
    3    2    0   23   20    0.000000    0.000000
    3    2    0   24   20    0.000000    0.000000
    3    2    0   25   20    0.000000    0.000000
    3    2    0   26   20    0.000000    0.000000
    3    2    0   27   20    0.000000    0.000000
    3    2    0    1   21    0.000000    0.000000
    3    2    0    2   21    0.000000    0.000000
    3    2    0    3   21    0.000000    0.000000
    3    2    0    4   21    0.000000    0.000000
    3    2    0    5   21    0.000000    0.000000
    3    2    0    6   21    0.000000    0.000000
    3    2    0    7   21    0.000000    0.000000
    3    2    0    8   21    0.000000    0.000000
    3    2    0    9   21    0.000000    0.000000
    3    2    0   10   21    0.000000    0.000000
    3    2    0   11   21    0.000000    0.000000
    3    2    0   12   21    0.000000    0.000000
    3    2    0   13   21    0.000000    0.000000
    3    2    0   14   21    0.000000    0.000000
    3    2    0   15   21    0.000000    0.000000
    3    2    0   16   21    0.000000    0.000000
    3    2    0   17   21    0.000000    0.000000
    3    2    0   18   21    0.000000    0.000000
    3    2    0   19   21    0.000000    0.000000
    3    2    0   20   21    0.000000    0.000000
    3    2    0   21   21    0.000000    0.000000
    3    2    0   22   21    0.000000    0.000000
    3    2    0   23   21    0.000000    0.000000
    3    2    0   24   21    0.000000    0.000000
    3    2    0   25   21    0.000000    0.000000
    3    2    0   26   21    0.000000    0.000000
    3    2    0   27   21    0.000000    0.000000
    3    2    0    1   22    0.000000    0.000000
    3    2    0    2   22    0.000000    0.000000
    3    2    0    3   22    0.000000    0.000000
    3    2    0    4   22    0.000000    0.000000
    3    2    0    5   22    0.000000    0.000000
    3    2    0    6   22    0.000000    0.000000
    3    2    0    7   22    0.000000    0.000000
    3    2    0    8   22    0.000000    0.000000
    3    2    0    9   22    0.000000    0.000000
    3    2    0   10   22    0.000000    0.000000
    3    2    0   11   22    0.000000    0.000000
    3    2    0   12   22    0.000000    0.000000
    3    2    0   13   22    0.000000    0.000000
    3    2    0   14   22    0.000000    0.000000
    3    2    0   15   22    0.000000    0.000000
    3    2    0   16   22    0.000000    0.000000
    3    2    0   17   22    0.000000    0.000000
    3    2    0   18   22    0.000000    0.000000
    3    2    0   19   22    0.000000    0.000000
    3    2    0   20   22    0.000000    0.000000
    3    2    0   21   22    0.000000    0.000000
    3    2    0   22   22    0.000000    0.000000
    3    2    0   23   22    0.000000    0.000000
    3    2    0   24   22    0.000000    0.000000
    3    2    0   25   22    0.000000    0.000000
    3    2    0   26   22    0.000000    0.000000
    3    2    0   27   22    0.000000    0.000000
    3    2    0    1   23    0.000000    0.000000
    3    2    0    2   23    0.000000    0.000000
    3    2    0    3   23    0.000000    0.000000
    3    2    0    4   23    0.000000    0.000000
    3    2    0    5   23    0.000000    0.000000
    3    2    0    6   23    0.000000    0.000000
    3    2    0    7   23    0.000000    0.000000
    3    2    0    8   23    0.000000    0.000000
    3    2    0    9   23    0.000000    0.000000
    3    2    0   10   23    0.000000    0.000000
    3    2    0   11   23    0.000000    0.000000
    3    2    0   12   23    0.000000    0.000000
    3    2    0   13   23    0.000000    0.000000
    3    2    0   14   23    0.000000    0.000000
    3    2    0   15   23    0.000000    0.000000
    3    2    0   16   23    0.000000    0.000000
    3    2    0   17   23    0.000000    0.000000
    3    2    0   18   23    0.000000    0.000000
    3    2    0   19   23    0.000000    0.000000
    3    2    0   20   23    0.000000    0.000000
    3    2    0   21   23    0.000000    0.000000
    3    2    0   22   23    0.000000    0.000000
    3    2    0   23   23    0.000000    0.000000
    3    2    0   24   23    0.000000    0.000000
    3    2    0   25   23    0.000000    0.000000
    3    2    0   26   23    0.000000    0.000000
    3    2    0   27   23    0.000000    0.000000
    3    2    0    1   24    0.000000    0.000000
    3    2    0    2   24    0.000000    0.000000
    3    2    0    3   24    0.000000    0.000000
    3    2    0    4   24    0.000000    0.000000
    3    2    0    5   24    0.000000    0.000000
    3    2    0    6   24    0.000000    0.000000
    3    2    0    7   24    0.000000    0.000000
    3    2    0    8   24    0.000000    0.000000
    3    2    0    9   24    0.000000    0.000000
    3    2    0   10   24    0.000000    0.000000
    3    2    0   11   24    0.000000    0.000000
    3    2    0   12   24    0.000000    0.000000
    3    2    0   13   24    0.000000    0.000000
    3    2    0   14   24    0.000000    0.000000
    3    2    0   15   24    0.000000    0.000000
    3    2    0   16   24    0.000000    0.000000
    3    2    0   17   24    0.000000    0.000000
    3    2    0   18   24    0.000000    0.000000
    3    2    0   19   24    0.000000    0.000000
    3    2    0   20   24    0.000000    0.000000
    3    2    0   21   24    0.000000    0.000000
    3    2    0   22   24    0.000000    0.000000
    3    2    0   23   24    0.000000    0.000000
    3    2    0   24   24    0.000000    0.000000
    3    2    0   25   24    0.000000    0.000000
    3    2    0   26   24    0.000000    0.000000
    3    2    0   27   24    0.000000    0.000000
    3    2    0    1   25    0.000000    0.000000
    3    2    0    2   25    0.000000    0.000000
    3    2    0    3   25    0.000000    0.000000
    3    2    0    4   25    0.000000    0.000000
    3    2    0    5   25    0.000000    0.000000
    3    2    0    6   25    0.000000    0.000000
    3    2    0    7   25    0.000000    0.000000
    3    2    0    8   25    0.000000    0.000000
    3    2    0    9   25    0.000000    0.000000
    3    2    0   10   25    0.000000    0.000000
    3    2    0   11   25    0.000000    0.000000
    3    2    0   12   25    0.000000    0.000000
    3    2    0   13   25    0.000000    0.000000
    3    2    0   14   25    0.000000    0.000000
    3    2    0   15   25    0.000000    0.000000
    3    2    0   16   25    0.000000    0.000000
    3    2    0   17   25    0.000000    0.000000
    3    2    0   18   25    0.000000    0.000000
    3    2    0   19   25    0.000000    0.000000
    3    2    0   20   25    0.000000    0.000000
    3    2    0   21   25    0.000000    0.000000
    3    2    0   22   25    0.000000    0.000000
    3    2    0   23   25    0.000000    0.000000
    3    2    0   24   25    0.000000    0.000000
    3    2    0   25   25    0.000000    0.000000
    3    2    0   26   25    0.000000    0.000000
    3    2    0   27   25    0.000000    0.000000
    3    2    0    1   26    0.000000    0.000000
    3    2    0    2   26    0.000000    0.000000
    3    2    0    3   26    0.000000    0.000000
    3    2    0    4   26    0.000000    0.000000
    3    2    0    5   26    0.000000    0.000000
    3    2    0    6   26    0.000000    0.000000
    3    2    0    7   26    0.000000    0.000000
    3    2    0    8   26    0.000000    0.000000
    3    2    0    9   26    0.000000    0.000000
    3    2    0   10   26    0.000000    0.000000
    3    2    0   11   26    0.000000    0.000000
    3    2    0   12   26    0.000000    0.000000
    3    2    0   13   26    0.000000    0.000000
    3    2    0   14   26    0.000000    0.000000
    3    2    0   15   26    0.000000    0.000000
    3    2    0   16   26    0.000000    0.000000
    3    2    0   17   26    0.000000    0.000000
    3    2    0   18   26    0.000000    0.000000
    3    2    0   19   26    0.000000    0.000000
    3    2    0   20   26    0.000000    0.000000
    3    2    0   21   26    0.000000    0.000000
    3    2    0   22   26    0.000000    0.000000
    3    2    0   23   26    0.000000    0.000000
    3    2    0   24   26    0.000000    0.000000
    3    2    0   25   26    0.000000    0.000000
    3    2    0   26   26    0.000000    0.000000
    3    2    0   27   26    0.000000    0.000000
    3    2    0    1   27    0.000000    0.000000
    3    2    0    2   27    0.000000    0.000000
    3    2    0    3   27    0.000000    0.000000
    3    2    0    4   27    0.000000    0.000000
    3    2    0    5   27    0.000000    0.000000
    3    2    0    6   27    0.000000    0.000000
    3    2    0    7   27    0.000000    0.000000
    3    2    0    8   27    0.000000    0.000000
    3    2    0    9   27    0.000000    0.000000
    3    2    0   10   27    0.000000    0.000000
    3    2    0   11   27    0.000000    0.000000
    3    2    0   12   27    0.000000    0.000000
    3    2    0   13   27    0.000000    0.000000
    3    2    0   14   27    0.000000    0.000000
    3    2    0   15   27    0.000000    0.000000
    3    2    0   16   27    0.000000    0.000000
    3    2    0   17   27    0.000000    0.000000
    3    2    0   18   27    0.000000    0.000000
    3    2    0   19   27    0.000000    0.000000
    3    2    0   20   27    0.000000    0.000000
    3    2    0   21   27    0.000000    0.000000
    3    2    0   22   27    0.000000    0.000000
    3    2    0   23   27    0.000000    0.000000
    3    2    0   24   27    0.000000    0.000000
    3    2    0   25   27    0.000000    0.000000
    3    2    0   26   27    0.000000    0.000000
    3    2    0   27   27    0.000000    0.000000
